<?xml version="1.0" encoding="UTF-8"?>

<!-- generated on 2025-05-26 18:19:47 by Eclipse SUMO GUI Version 1.22.0
<sumoConfiguration xmlns:xsi="http://www.w3.org/2001/XMLSchema-instance" xsi:noNamespaceSchemaLocation="http://sumo.dlr.de/xsd/sumoConfiguration.xsd">

    <input>
        <net-file value="sumotestmap.net.xml"/>
        <route-files value="routes.rou.xml"/>
    </input>

    <output>
        <emission-output value="emissions.xml"/>
        <full-output value="results.xml"/>
    </output>

    <time>
        <begin value="0"/>
        <end value="100"/>
        <step-length value="0.5"/>
    </time>

</sumoConfiguration>
-->

<emission-export xmlns:xsi="http://www.w3.org/2001/XMLSchema-instance" xsi:noNamespaceSchemaLocation="http://sumo.dlr.de/xsd/emission_file.xsd">
    <timestep time="0.00">
        <vehicle id="0" eclass="HBEFA3/PC_G_EU4" CO2="2624.72" CO="164.78" HC="0.81" NOx="1.20" PMx="0.07" fuel="837.22" electricity="0.00" noise="55.94" route="!0" type="DEFAULT_VEHTYPE" waiting="0.00" lane="4987249#2_0" pos="3.63" speed="0.00" angle="26.84" x="2960.40" y="2309.31"/>
    </timestep>
    <timestep time="0.50">
        <vehicle id="0" eclass="HBEFA3/PC_G_EU4" CO2="3334.86" CO="157.33" HC="0.79" NOx="1.50" PMx="0.08" fuel="1063.71" electricity="0.00" noise="67.76" route="!0" type="DEFAULT_VEHTYPE" waiting="0.00" lane=":7872192240_0_0" pos="0.64" speed="1.29" angle="26.37" x="2960.70" y="2309.88"/>
    </timestep>
    <timestep time="1.00">
        <vehicle id="0" eclass="HBEFA3/PC_G_EU4" CO2="3308.54" CO="143.22" HC="0.73" NOx="1.47" PMx="0.07" fuel="1055.31" electricity="0.00" noise="64.11" route="!0" type="DEFAULT_VEHTYPE" waiting="0.00" lane=":7872192240_0_0" pos="1.70" speed="2.12" angle="26.00" x="2961.18" y="2310.82"/>
        <vehicle id="1" eclass="HBEFA3/PC_G_EU4" CO2="2624.72" CO="164.78" HC="0.81" NOx="1.20" PMx="0.07" fuel="837.22" electricity="0.00" noise="55.94" route="!1" type="DEFAULT_VEHTYPE" waiting="0.00" lane="-771326027#3_0" pos="5.10" speed="0.00" angle="130.66" x="2661.21" y="2983.73"/>
    </timestep>
    <timestep time="1.50">
        <vehicle id="0" eclass="HBEFA3/PC_G_EU4" CO2="4318.34" CO="145.80" HC="0.77" NOx="1.91" PMx="0.09" fuel="1377.38" electricity="0.00" noise="67.63" route="!0" type="DEFAULT_VEHTYPE" waiting="0.00" lane=":7872192240_0_0" pos="3.36" speed="3.30" angle="26.77" x="2961.94" y="2312.29"/>
        <vehicle id="1" eclass="HBEFA3/PC_G_EU4" CO2="3343.71" CO="157.40" HC="0.80" NOx="1.51" PMx="0.08" fuel="1066.53" electricity="0.00" noise="67.82" route="!1" type="DEFAULT_VEHTYPE" waiting="0.00" lane="-771326027#3_0" pos="5.75" speed="1.29" angle="130.66" x="2661.70" y="2983.31"/>
    </timestep>
    <timestep time="2.00">
        <vehicle id="0" eclass="HBEFA3/PC_G_EU4" CO2="5062.66" CO="143.61" HC="0.77" NOx="2.23" PMx="0.11" fuel="1614.77" electricity="0.00" noise="68.43" route="!0" type="DEFAULT_VEHTYPE" waiting="0.00" lane="4987249#3_0" pos="0.63" speed="4.52" angle="27.33" x="2962.97" y="2314.29"/>
        <vehicle id="1" eclass="HBEFA3/PC_G_EU4" CO2="3966.76" CO="150.44" HC="0.78" NOx="1.77" PMx="0.09" fuel="1265.25" electricity="0.00" noise="67.74" route="!1" type="DEFAULT_VEHTYPE" waiting="0.00" lane="-771326027#3_0" pos="7.01" speed="2.53" angle="130.66" x="2662.66" y="2982.48"/>
        <vehicle id="2" eclass="HBEFA3/PC_G_EU4" CO2="2624.72" CO="164.78" HC="0.81" NOx="1.20" PMx="0.07" fuel="837.22" electricity="0.00" noise="55.94" route="!2" type="DEFAULT_VEHTYPE" waiting="0.00" lane="645419926#6_0" pos="0.20" speed="0.00" angle="312.10" x="3869.29" y="2875.65"/>
    </timestep>
    <timestep time="2.50">
        <vehicle id="0" eclass="HBEFA3/PC_G_EU4" CO2="5911.02" CO="144.31" HC="0.80" NOx="2.60" PMx="0.12" fuel="1885.35" electricity="0.00" noise="69.31" route="!0" type="DEFAULT_VEHTYPE" waiting="0.00" lane="4987249#3_0" pos="3.51" speed="5.77" angle="28.00" x="2964.34" y="2316.80"/>
        <vehicle id="1" eclass="HBEFA3/PC_G_EU4" CO2="3460.06" CO="129.35" HC="0.67" NOx="1.51" PMx="0.07" fuel="1103.63" electricity="0.00" noise="63.36" route="!1" type="DEFAULT_VEHTYPE" waiting="0.00" lane="-771326027#3_0" pos="8.62" speed="3.22" angle="130.66" x="2663.88" y="2981.43"/>
        <vehicle id="2" eclass="HBEFA3/PC_G_EU4" CO2="3110.50" CO="156.03" HC="0.78" NOx="1.40" PMx="0.07" fuel="992.15" electricity="0.00" noise="65.93" route="!2" type="DEFAULT_VEHTYPE" waiting="0.00" lane=":7201339016_0_0" pos="0.54" speed="1.09" angle="312.10" x="3868.89" y="2876.01"/>
    </timestep>
    <timestep time="3.00">
        <vehicle id="0" eclass="HBEFA3/PC_G_EU4" CO2="5945.78" CO="131.68" HC="0.74" NOx="2.59" PMx="0.12" fuel="1896.43" electricity="0.00" noise="68.25" route="!0" type="DEFAULT_VEHTYPE" waiting="0.00" lane="4987249#3_0" pos="6.94" speed="6.85" angle="29.30" x="2965.99" y="2319.75"/>
        <vehicle id="1" eclass="HBEFA3/PC_G_EU4" CO2="4891.16" CO="141.83" HC="0.76" NOx="2.15" PMx="0.10" fuel="1560.07" electricity="0.00" noise="68.00" route="!1" type="DEFAULT_VEHTYPE" waiting="0.00" lane="-771326027#3_0" pos="10.82" speed="4.39" angle="130.66" x="2665.55" y="2980.00"/>
        <vehicle id="2" eclass="HBEFA3/PC_G_EU4" CO2="3457.47" CO="147.03" HC="0.75" NOx="1.54" PMx="0.08" fuel="1102.81" electricity="0.00" noise="65.42" route="!2" type="DEFAULT_VEHTYPE" waiting="0.00" lane=":7201339016_0_0" pos="1.58" speed="2.08" angle="312.10" x="3868.11" y="2876.71"/>
    </timestep>
    <timestep time="3.50">
        <vehicle id="0" eclass="HBEFA3/PC_G_EU4" CO2="4797.99" CO="100.02" HC="0.57" NOx="2.03" PMx="0.09" fuel="1530.35" electricity="0.00" noise="65.31" route="!0" type="DEFAULT_VEHTYPE" waiting="0.00" lane="4987249#3_0" pos="10.71" speed="7.54" angle="30.03" x="2967.87" y="2322.97"/>
        <vehicle id="1" eclass="HBEFA3/PC_G_EU4" CO2="5858.41" CO="144.76" HC="0.80" NOx="2.58" PMx="0.12" fuel="1868.57" electricity="0.00" noise="69.32" route="!1" type="DEFAULT_VEHTYPE" waiting="0.00" lane="-771326027#3_0" pos="13.65" speed="5.66" angle="130.66" x="2667.69" y="2978.16"/>
        <vehicle id="2" eclass="HBEFA3/PC_G_EU4" CO2="3629.74" CO="137.16" HC="0.71" NOx="1.60" PMx="0.08" fuel="1157.75" electricity="0.00" noise="64.67" route="!2" type="DEFAULT_VEHTYPE" waiting="0.00" lane=":7201339016_0_0" pos="3.05" speed="2.94" angle="312.10" x="3867.02" y="2877.69"/>
    </timestep>
    <timestep time="4.00">
        <vehicle id="0" eclass="HBEFA3/PC_G_EU4" CO2="7513.79" CO="142.97" HC="0.83" NOx="3.28" PMx="0.16" fuel="2396.54" electricity="0.00" noise="70.11" route="!0" type="DEFAULT_VEHTYPE" waiting="0.00" lane=":7872192244_0_0" pos="0.43" speed="8.73" angle="31.44" x="2970.12" y="2326.65"/>
        <vehicle id="1" eclass="HBEFA3/PC_G_EU4" CO2="5678.65" CO="128.22" HC="0.72" NOx="2.46" PMx="0.12" fuel="1811.23" electricity="0.00" noise="67.74" route="!1" type="DEFAULT_VEHTYPE" waiting="0.00" lane="-771326027#3_0" pos="16.99" speed="6.68" angle="130.66" x="2670.22" y="2975.98"/>
        <vehicle id="2" eclass="HBEFA3/PC_G_EU4" CO2="4290.93" CO="135.95" HC="0.72" NOx="1.88" PMx="0.09" fuel="1368.64" electricity="0.00" noise="66.31" route="!2" type="DEFAULT_VEHTYPE" waiting="0.00" lane=":7201339016_0_0" pos="5.02" speed="3.94" angle="311.98" x="3865.56" y="2879.01"/>
        <vehicle id="4" eclass="HBEFA3/PC_G_EU4" CO2="2624.72" CO="164.78" HC="0.81" NOx="1.20" PMx="0.07" fuel="837.22" electricity="0.00" noise="55.94" route="!4" type="DEFAULT_VEHTYPE" waiting="0.00" lane="24926458#6_0" pos="5.10" speed="0.00" angle="311.92" x="4214.55" y="2849.91"/>
    </timestep>
    <timestep time="4.50">
        <vehicle id="0" eclass="HBEFA3/PC_G_EU4" CO2="7158.87" CO="125.73" HC="0.74" NOx="3.08" PMx="0.14" fuel="2283.34" electricity="0.00" noise="68.95" route="!0" type="DEFAULT_VEHTYPE" waiting="0.00" lane="4987249#4_0" pos="0.30" speed="9.73" angle="32.85" x="2972.76" y="2330.74"/>
        <vehicle id="1" eclass="HBEFA3/PC_G_EU4" CO2="6810.48" CO="138.10" HC="0.79" NOx="2.97" PMx="0.14" fuel="2172.22" electricity="0.00" noise="69.39" route="!1" type="DEFAULT_VEHTYPE" waiting="0.00" lane="-771326027#3_0" pos="20.90" speed="7.84" angle="130.66" x="2673.20" y="2973.43"/>
        <vehicle id="2" eclass="HBEFA3/PC_G_EU4" CO2="5447.52" CO="142.83" HC="0.78" NOx="2.40" PMx="0.11" fuel="1737.52" electricity="0.00" noise="68.75" route="!2" type="DEFAULT_VEHTYPE" waiting="0.00" lane="645419926#7_0" pos="0.48" speed="5.16" angle="311.98" x="3863.64" y="2880.73"/>
        <vehicle id="4" eclass="HBEFA3/PC_G_EU4" CO2="3170.32" CO="156.31" HC="0.79" NOx="1.43" PMx="0.07" fuel="1011.23" electricity="0.00" noise="66.45" route="!4" type="DEFAULT_VEHTYPE" waiting="0.00" lane="24926458#6_0" pos="5.67" speed="1.15" angle="311.92" x="4214.13" y="2850.29"/>
    </timestep>
    <timestep time="5.00">
        <vehicle id="0" eclass="HBEFA3/PC_G_EU4" CO2="7979.83" CO="133.15" HC="0.80" NOx="3.44" PMx="0.16" fuel="2545.18" electricity="0.00" noise="69.82" route="!0" type="DEFAULT_VEHTYPE" waiting="0.00" lane="4987249#4_0" pos="5.68" speed="10.77" angle="34.21" x="2975.77" y="2335.18"/>
        <vehicle id="1" eclass="HBEFA3/PC_G_EU4" CO2="7932.90" CO="148.11" HC="0.86" NOx="3.47" PMx="0.17" fuel="2530.21" electricity="0.00" noise="70.64" route="!1" type="DEFAULT_VEHTYPE" waiting="0.00" lane="-771326027#3_0" pos="25.44" speed="9.07" angle="130.66" x="2676.64" y="2970.47"/>
        <vehicle id="2" eclass="HBEFA3/PC_G_EU4" CO2="5801.02" CO="135.61" HC="0.76" NOx="2.53" PMx="0.12" fuel="1850.26" electricity="0.00" noise="68.41" route="!2" type="DEFAULT_VEHTYPE" waiting="0.00" lane="645419926#7_0" pos="3.62" speed="6.28" angle="312.00" x="3861.31" y="2882.83"/>
        <vehicle id="4" eclass="HBEFA3/PC_G_EU4" CO2="3685.66" CO="148.80" HC="0.76" NOx="1.64" PMx="0.08" fuel="1175.59" electricity="0.00" noise="66.62" route="!4" type="DEFAULT_VEHTYPE" waiting="0.00" lane="24926458#6_0" pos="6.80" speed="2.26" angle="311.92" x="4213.29" y="2851.05"/>
    </timestep>
    <timestep time="5.50">
        <vehicle id="0" eclass="HBEFA3/PC_G_EU4" CO2="10303.89" CO="170.51" HC="1.03" NOx="4.51" PMx="0.22" fuel="3286.43" electricity="0.00" noise="72.51" route="!0" type="DEFAULT_VEHTYPE" waiting="0.00" lane="4987249#4_0" pos="11.71" speed="12.06" angle="35.32" x="2979.25" y="2340.09"/>
        <vehicle id="1" eclass="HBEFA3/PC_G_EU4" CO2="8228.73" CO="143.17" HC="0.85" NOx="3.58" PMx="0.17" fuel="2624.56" electricity="0.00" noise="70.44" route="!1" type="DEFAULT_VEHTYPE" waiting="0.00" lane="-771326027#3_0" pos="30.55" speed="10.22" angle="130.66" x="2680.51" y="2967.15"/>
        <vehicle id="2" eclass="HBEFA3/PC_G_EU4" CO2="6946.51" CO="144.45" HC="0.82" NOx="3.04" PMx="0.15" fuel="2215.61" electricity="0.00" noise="69.95" route="!2" type="DEFAULT_VEHTYPE" waiting="0.00" lane="645419926#7_0" pos="7.38" speed="7.52" angle="312.01" x="3858.52" y="2885.35"/>
        <vehicle id="4" eclass="HBEFA3/PC_G_EU4" CO2="3328.10" CO="131.11" HC="0.67" NOx="1.46" PMx="0.07" fuel="1061.55" electricity="0.00" noise="62.96" route="!4" type="DEFAULT_VEHTYPE" waiting="0.00" lane="24926458#6_0" pos="8.27" speed="2.93" angle="311.92" x="4212.20" y="2852.02"/>
    </timestep>
    <timestep time="6.00">
        <vehicle id="0" eclass="HBEFA3/PC_G_EU4" CO2="6770.99" CO="92.78" HC="0.58" NOx="2.82" PMx="0.13" fuel="2159.62" electricity="0.00" noise="68.03" route="!0" type="DEFAULT_VEHTYPE" waiting="0.00" lane=":7206789988_0_0" pos="4.24" speed="12.74" angle="36.98" x="2982.94" y="2345.07"/>
        <vehicle id="1" eclass="HBEFA3/PC_G_EU4" CO2="6833.69" CO="107.28" HC="0.65" NOx="2.90" PMx="0.13" fuel="2179.62" electricity="0.00" noise="68.13" route="!1" type="DEFAULT_VEHTYPE" waiting="0.00" lane="-771326027#3_0" pos="36.06" speed="11.03" angle="130.66" x="2684.70" y="2963.55"/>
        <vehicle id="2" eclass="HBEFA3/PC_G_EU4" CO2="4939.29" CO="95.71" HC="0.55" NOx="2.08" PMx="0.09" fuel="1575.41" electricity="0.00" noise="65.47" route="!2" type="DEFAULT_VEHTYPE" waiting="0.00" lane="645419926#7_0" pos="11.47" speed="8.19" angle="312.01" x="3855.48" y="2888.09"/>
        <vehicle id="4" eclass="HBEFA3/PC_G_EU4" CO2="4050.25" CO="132.54" HC="0.70" NOx="1.77" PMx="0.08" fuel="1291.87" electricity="0.00" noise="65.43" route="!4" type="DEFAULT_VEHTYPE" waiting="0.00" lane="24926458#6_0" pos="10.18" speed="3.83" angle="311.92" x="4210.77" y="2853.30"/>
    </timestep>
    <timestep time="6.50">
        <vehicle id="0" eclass="HBEFA3/PC_G_EU4" CO2="9543.83" CO="143.21" HC="0.88" NOx="4.11" PMx="0.20" fuel="3044.00" electricity="0.00" noise="71.05" route="!0" type="DEFAULT_VEHTYPE" waiting="0.00" lane="4987249#5_0" pos="6.43" speed="13.75" angle="40.82" x="2987.41" y="2350.24"/>
        <vehicle id="1" eclass="HBEFA3/PC_G_EU4" CO2="10158.25" CO="165.87" HC="1.00" NOx="4.43" PMx="0.22" fuel="3239.97" electricity="0.00" noise="72.22" route="!1" type="DEFAULT_VEHTYPE" waiting="0.00" lane="-771326027#3_0" pos="42.20" speed="12.27" angle="130.66" x="2689.35" y="2959.55"/>
        <vehicle id="2" eclass="HBEFA3/PC_G_EU4" CO2="5392.18" CO="97.54" HC="0.57" NOx="2.27" PMx="0.10" fuel="1719.86" electricity="0.00" noise="66.20" route="!2" type="DEFAULT_VEHTYPE" waiting="0.00" lane="645419926#7_0" pos="15.92" speed="8.90" angle="312.01" x="3852.17" y="2891.07"/>
        <vehicle id="4" eclass="HBEFA3/PC_G_EU4" CO2="3906.34" CO="119.37" HC="0.63" NOx="1.68" PMx="0.08" fuel="1245.97" electricity="0.00" noise="64.14" route="!4" type="DEFAULT_VEHTYPE" waiting="0.00" lane="24926458#6_0" pos="12.46" speed="4.55" angle="311.92" x="4209.08" y="2854.82"/>
    </timestep>
    <timestep time="7.00">
        <vehicle id="0" eclass="HBEFA3/PC_G_EU4" CO2="8732.19" CO="121.64" HC="0.76" NOx="3.70" PMx="0.18" fuel="2785.13" electricity="0.00" noise="70.14" route="!0" type="DEFAULT_VEHTYPE" waiting="0.00" lane=":7872192246_0_0" pos="0.11" speed="14.58" angle="41.56" x="2992.22" y="2355.68"/>
        <vehicle id="1" eclass="HBEFA3/PC_G_EU4" CO2="6284.69" CO="81.82" HC="0.52" NOx="2.59" PMx="0.12" fuel="2004.51" electricity="0.00" noise="67.52" route="!1" type="DEFAULT_VEHTYPE" waiting="0.00" lane="-771326027#3_0" pos="48.64" speed="12.87" angle="130.66" x="2694.23" y="2955.36"/>
        <vehicle id="2" eclass="HBEFA3/PC_G_EU4" CO2="5959.07" CO="101.62" HC="0.60" NOx="2.52" PMx="0.11" fuel="1900.67" electricity="0.00" noise="67.03" route="!2" type="DEFAULT_VEHTYPE" waiting="0.00" lane="645419926#7_0" pos="20.76" speed="9.66" angle="312.01" x="3848.58" y="2894.30"/>
        <vehicle id="4" eclass="HBEFA3/PC_G_EU4" CO2="5321.29" CO="133.97" HC="0.74" NOx="2.32" PMx="0.11" fuel="1697.26" electricity="0.00" noise="67.76" route="!4" type="DEFAULT_VEHTYPE" waiting="0.00" lane="24926458#6_0" pos="15.27" speed="5.63" angle="311.92" x="4206.98" y="2856.71"/>
        <vehicle id="7" eclass="HBEFA3/PC_G_EU4" CO2="2624.72" CO="164.78" HC="0.81" NOx="1.20" PMx="0.07" fuel="837.22" electricity="0.00" noise="55.94" route="!7" type="DEFAULT_VEHTYPE" waiting="0.00" lane="4987249#37_0" pos="5.10" speed="0.00" angle="53.46" x="3470.69" y="2722.81"/>
    </timestep>
    <timestep time="7.50">
        <vehicle id="0" eclass="HBEFA3/PC_G_EU4" CO2="8535.46" CO="113.66" HC="0.72" NOx="3.59" PMx="0.17" fuel="2722.39" electricity="0.00" noise="69.99" route="!0" type="DEFAULT_VEHTYPE" waiting="0.00" lane=":7206774384_3_0" pos="0.97" speed="15.34" angle="44.13" x="2997.48" y="2361.14"/>
        <vehicle id="1" eclass="HBEFA3/PC_G_EU4" CO2="2359.08" CO="0.89" HC="0.06" NOx="0.74" PMx="0.01" fuel="752.45" electricity="0.00" noise="63.94" route="!1" type="DEFAULT_VEHTYPE" waiting="0.00" lane="-771326027#3_0" pos="55.08" speed="12.89" angle="130.66" x="2699.12" y="2951.16"/>
        <vehicle id="2" eclass="HBEFA3/PC_G_EU4" CO2="5805.18" CO="92.09" HC="0.56" NOx="2.43" PMx="0.11" fuel="1851.58" electricity="0.00" noise="66.74" route="!2" type="DEFAULT_VEHTYPE" waiting="0.00" lane="645419926#7_0" pos="25.93" speed="10.35" angle="312.01" x="3844.74" y="2897.76"/>
        <vehicle id="4" eclass="HBEFA3/PC_G_EU4" CO2="0.00" CO="0.00" HC="0.00" NOx="0.00" PMx="0.00" fuel="0.00" electricity="0.00" noise="46.25" route="!4" type="DEFAULT_VEHTYPE" waiting="0.00" lane=":6579766762_5_0" pos="0.06" speed="3.76" angle="311.50" x="4205.57" y="2857.93"/>
        <vehicle id="7" eclass="HBEFA3/PC_G_EU4" CO2="3119.56" CO="156.07" HC="0.78" NOx="1.41" PMx="0.07" fuel="995.04" electricity="0.00" noise="66.01" route="!7" type="DEFAULT_VEHTYPE" waiting="0.00" lane="4987249#37_1" pos="5.65" speed="1.10" angle="53.46" x="3469.22" y="2725.70"/>
    </timestep>
    <timestep time="8.00">
        <vehicle id="0" eclass="HBEFA3/PC_G_EU4" CO2="11774.72" CO="175.63" HC="1.09" NOx="5.09" PMx="0.26" fuel="3755.54" electricity="0.00" noise="72.90" route="!0" type="DEFAULT_VEHTYPE" waiting="0.00" lane=":7206774384_3_0" pos="9.17" speed="16.41" angle="46.32" x="3003.39" y="2366.79"/>
        <vehicle id="1" eclass="HBEFA3/PC_G_EU4" CO2="0.00" CO="0.00" HC="0.00" NOx="0.00" PMx="0.00" fuel="0.00" electricity="0.00" noise="62.29" route="!1" type="DEFAULT_VEHTYPE" waiting="0.00" lane="-771326027#3_0" pos="61.37" speed="12.58" angle="130.66" x="2703.89" y="2947.06"/>
        <vehicle id="2" eclass="HBEFA3/PC_G_EU4" CO2="8845.14" CO="145.12" HC="0.87" NOx="3.83" PMx="0.19" fuel="2821.16" electricity="0.00" noise="70.80" route="!2" type="DEFAULT_VEHTYPE" waiting="0.00" lane="645419926#7_0" pos="31.66" speed="11.46" angle="312.01" x="3840.48" y="2901.60"/>
        <vehicle id="4" eclass="HBEFA3/PC_G_EU4" CO2="0.00" CO="0.00" HC="0.00" NOx="0.00" PMx="0.00" fuel="0.00" electricity="0.00" noise="52.31" route="!4" type="DEFAULT_VEHTYPE" waiting="0.00" lane=":6579766762_9_0" pos="0.20" speed="3.15" angle="300.03" x="4204.01" y="2858.06"/>
        <vehicle id="7" eclass="HBEFA3/PC_G_EU4" CO2="3810.16" CO="150.74" HC="0.78" NOx="1.70" PMx="0.08" fuel="1215.30" electricity="0.00" noise="67.41" route="!7" type="DEFAULT_VEHTYPE" waiting="0.00" lane="4987249#37_1" pos="6.80" speed="2.30" angle="53.46" x="3470.14" y="2726.39"/>
    </timestep>
    <timestep time="8.50">
        <vehicle id="0" eclass="HBEFA3/PC_G_EU4" CO2="8979.21" CO="115.49" HC="0.74" NOx="3.76" PMx="0.18" fuel="2863.92" electricity="0.00" noise="70.57" route="!0" type="DEFAULT_VEHTYPE" waiting="0.00" lane="4987249#8_0" pos="1.26" speed="17.11" angle="48.91" x="3009.66" y="2372.48"/>
        <vehicle id="1" eclass="HBEFA3/PC_G_EU4" CO2="2401.54" CO="3.79" HC="0.07" NOx="0.77" PMx="0.01" fuel="765.99" electricity="0.00" noise="63.78" route="!1" type="DEFAULT_VEHTYPE" waiting="0.00" lane=":6517615540_6_0" pos="1.57" speed="12.60" angle="130.82" x="2708.66" y="2942.95"/>
        <vehicle id="2" eclass="HBEFA3/PC_G_EU4" CO2="8106.52" CO="122.87" HC="0.75" NOx="3.46" PMx="0.16" fuel="2585.58" electricity="0.00" noise="69.60" route="!2" type="DEFAULT_VEHTYPE" waiting="0.00" lane="645419926#7_0" pos="37.85" speed="12.38" angle="312.01" x="3835.88" y="2905.74"/>
        <vehicle id="4" eclass="HBEFA3/PC_G_EU4" CO2="2818.35" CO="112.65" HC="0.58" NOx="1.20" PMx="0.05" fuel="898.96" electricity="0.00" noise="60.06" route="!4" type="DEFAULT_VEHTYPE" waiting="0.00" lane=":6579766762_9_0" pos="1.93" speed="3.46" angle="269.52" x="4203.17" y="2856.80"/>
        <vehicle id="7" eclass="HBEFA3/PC_G_EU4" CO2="3347.14" CO="130.83" HC="0.67" NOx="1.46" PMx="0.07" fuel="1067.62" electricity="0.00" noise="63.02" route="!7" type="DEFAULT_VEHTYPE" waiting="0.00" lane="4987249#37_1" pos="8.28" speed="2.97" angle="53.46" x="3471.34" y="2727.27"/>
    </timestep>
    <timestep time="9.00">
        <vehicle id="0" eclass="HBEFA3/PC_G_EU4" CO2="11744.95" CO="169.61" HC="1.06" NOx="5.04" PMx="0.26" fuel="3746.04" electricity="0.00" noise="72.79" route="!0" type="DEFAULT_VEHTYPE" waiting="0.00" lane="4987249#8_0" pos="10.29" speed="18.06" angle="51.51" x="3016.60" y="2378.15"/>
        <vehicle id="1" eclass="HBEFA3/PC_G_EU4" CO2="4360.54" CO="41.93" HC="0.29" NOx="1.68" PMx="0.07" fuel="1390.81" electricity="0.00" noise="65.62" route="!1" type="DEFAULT_VEHTYPE" waiting="0.00" lane=":6517615540_6_0" pos="8.03" speed="12.91" angle="132.54" x="2713.44" y="2938.61"/>
        <vehicle id="2" eclass="HBEFA3/PC_G_EU4" CO2="9437.42" CO="143.21" HC="0.88" NOx="4.07" PMx="0.20" fuel="3010.07" electricity="0.00" noise="70.99" route="!2" type="DEFAULT_VEHTYPE" waiting="0.00" lane="645419926#7_0" pos="44.55" speed="13.40" angle="312.01" x="3830.91" y="2910.22"/>
        <vehicle id="4" eclass="HBEFA3/PC_G_EU4" CO2="2148.74" CO="99.93" HC="0.50" NOx="0.89" PMx="0.04" fuel="685.39" electricity="0.00" noise="56.82" route="!4" type="DEFAULT_VEHTYPE" waiting="0.00" lane="-24926458#6_0" pos="0.39" speed="3.39" angle="213.97" x="4203.78" y="2855.28"/>
        <vehicle id="7" eclass="HBEFA3/PC_G_EU4" CO2="4040.61" CO="131.86" HC="0.70" NOx="1.77" PMx="0.08" fuel="1288.80" electricity="0.00" noise="65.34" route="!7" type="DEFAULT_VEHTYPE" waiting="0.00" lane="4987249#37_1" pos="10.22" speed="3.86" angle="53.46" x="3472.89" y="2728.42"/>
    </timestep>
    <timestep time="9.50">
        <vehicle id="0" eclass="HBEFA3/PC_G_EU4" CO2="14759.75" CO="229.22" HC="1.41" NOx="6.44" PMx="0.33" fuel="4707.61" electricity="0.00" noise="75.08" route="!0" type="DEFAULT_VEHTYPE" waiting="0.00" lane=":32537832_0_0" pos="2.89" speed="19.23" angle="53.09" x="3024.27" y="2383.89"/>
        <vehicle id="1" eclass="HBEFA3/PC_G_EU4" CO2="0.00" CO="0.00" HC="0.00" NOx="0.00" PMx="0.00" fuel="0.00" electricity="0.00" noise="61.55" route="!1" type="DEFAULT_VEHTYPE" waiting="0.00" lane="-771326027#2_0" pos="0.26" speed="12.41" angle="134.84" x="2717.86" y="2934.25"/>
        <vehicle id="2" eclass="HBEFA3/PC_G_EU4" CO2="9973.03" CO="148.12" HC="0.92" NOx="4.29" PMx="0.21" fuel="3180.90" electricity="0.00" noise="71.41" route="!2" type="DEFAULT_VEHTYPE" waiting="0.00" lane=":7201339363_0_0" pos="3.58" speed="14.41" angle="313.91" x="3825.67" y="2915.16"/>
        <vehicle id="4" eclass="HBEFA3/PC_G_EU4" CO2="5078.79" CO="142.97" HC="0.77" NOx="2.24" PMx="0.11" fuel="1619.92" electricity="0.00" noise="68.37" route="!4" type="DEFAULT_VEHTYPE" waiting="0.00" lane="-24926458#6_0" pos="2.69" speed="4.59" angle="152.19" x="4205.49" y="2853.74"/>
        <vehicle id="7" eclass="HBEFA3/PC_G_EU4" CO2="4858.24" CO="134.03" HC="0.72" NOx="2.12" PMx="0.10" fuel="1549.57" electricity="0.00" noise="67.14" route="!7" type="DEFAULT_VEHTYPE" waiting="0.00" lane="4987249#37_1" pos="12.67" speed="4.91" angle="53.46" x="3474.86" y="2729.88"/>
    </timestep>
    <timestep time="10.00">
        <vehicle id="0" eclass="HBEFA3/PC_G_EU4" CO2="11026.17" CO="151.38" HC="0.96" NOx="4.66" PMx="0.24" fuel="3516.79" electricity="0.00" noise="72.44" route="!0" type="DEFAULT_VEHTYPE" waiting="0.00" lane="4987249#9_0" pos="4.65" speed="19.98" angle="51.90" x="3032.19" y="2390.05"/>
        <vehicle id="1" eclass="HBEFA3/PC_G_EU4" CO2="2198.22" CO="0.98" HC="0.05" NOx="0.67" PMx="0.01" fuel="701.15" electricity="0.00" noise="63.50" route="!1" type="DEFAULT_VEHTYPE" waiting="0.00" lane=":6517615532_13_0" pos="0.10" speed="12.41" angle="135.64" x="2722.20" y="2929.81"/>
        <vehicle id="2" eclass="HBEFA3/PC_G_EU4" CO2="9351.78" CO="130.78" HC="0.82" NOx="3.98" PMx="0.19" fuel="2982.75" electricity="0.00" noise="70.74" route="!2" type="DEFAULT_VEHTYPE" waiting="0.00" lane="645419926#8_0" pos="3.83" speed="15.27" angle="315.55" x="3820.29" y="2920.59"/>
        <vehicle id="4" eclass="HBEFA3/PC_G_EU4" CO2="5023.57" CO="128.54" HC="0.70" NOx="2.18" PMx="0.10" fuel="1602.30" electricity="0.00" noise="66.93" route="!4" type="DEFAULT_VEHTYPE" waiting="0.00" lane="-24926458#6_0" pos="5.48" speed="5.58" angle="131.92" x="4207.57" y="2851.88"/>
        <vehicle id="7" eclass="HBEFA3/PC_G_EU4" CO2="4377.84" CO="114.10" HC="0.62" NOx="1.88" PMx="0.08" fuel="1396.35" electricity="0.00" noise="64.97" route="!7" type="DEFAULT_VEHTYPE" waiting="0.00" lane=":7872488971_0_1" pos="1.72" speed="5.67" angle="53.46" x="3477.14" y="2731.57"/>
    </timestep>
    <timestep time="10.50">
        <vehicle id="0" eclass="HBEFA3/PC_G_EU4" CO2="12643.69" CO="184.15" HC="1.15" NOx="5.40" PMx="0.28" fuel="4032.70" electricity="0.00" noise="73.58" route="!0" type="DEFAULT_VEHTYPE" waiting="0.00" lane="4987249#9_0" pos="15.07" speed="20.84" angle="51.87" x="3040.39" y="2396.48"/>
        <vehicle id="1" eclass="HBEFA3/PC_G_EU4" CO2="2712.63" CO="11.03" HC="0.11" NOx="0.92" PMx="0.02" fuel="865.21" electricity="0.00" noise="63.96" route="!1" type="DEFAULT_VEHTYPE" waiting="0.00" lane=":6517615532_13_0" pos="6.34" speed="12.49" angle="135.96" x="2726.54" y="2925.32"/>
        <vehicle id="2" eclass="HBEFA3/PC_G_EU4" CO2="8568.04" CO="111.32" HC="0.71" NOx="3.59" PMx="0.17" fuel="2732.78" electricity="0.00" noise="70.09" route="!2" type="DEFAULT_VEHTYPE" waiting="0.00" lane="645419926#8_0" pos="11.83" speed="15.99" angle="315.81" x="3814.71" y="2926.32"/>
        <vehicle id="4" eclass="HBEFA3/PC_G_EU4" CO2="5918.19" CO="133.22" HC="0.75" NOx="2.58" PMx="0.12" fuel="1887.64" electricity="0.00" noise="68.33" route="!4" type="DEFAULT_VEHTYPE" waiting="0.00" lane="-24926458#6_0" pos="8.81" speed="6.67" angle="131.92" x="4210.05" y="2849.65"/>
        <vehicle id="7" eclass="HBEFA3/PC_G_EU4" CO2="5999.02" CO="133.72" HC="0.75" NOx="2.61" PMx="0.12" fuel="1913.41" electricity="0.00" noise="68.45" route="!7" type="DEFAULT_VEHTYPE" waiting="0.00" lane="4987249#38_1" pos="0.10" speed="6.77" angle="53.45" x="3479.86" y="2733.59"/>
    </timestep>
    <timestep time="11.00">
        <vehicle id="0" eclass="HBEFA3/PC_G_EU4" CO2="16091.60" CO="255.35" HC="1.56" NOx="7.00" PMx="0.37" fuel="5132.40" electricity="0.00" noise="75.86" route="!0" type="DEFAULT_VEHTYPE" waiting="0.00" lane=":377615254_3_0" pos="0.96" speed="21.93" angle="51.86" x="3049.01" y="2403.25"/>
        <vehicle id="1" eclass="HBEFA3/PC_G_EU4" CO2="5954.11" CO="73.96" HC="0.48" NOx="2.43" PMx="0.11" fuel="1899.08" electricity="0.00" noise="67.20" route="!1" type="DEFAULT_VEHTYPE" waiting="0.00" lane=":6517615532_13_0" pos="12.86" speed="13.03" angle="135.96" x="2731.07" y="2920.64"/>
        <vehicle id="2" eclass="HBEFA3/PC_G_EU4" CO2="10007.73" CO="137.64" HC="0.87" NOx="4.25" PMx="0.21" fuel="3191.96" electricity="0.00" noise="71.36" route="!2" type="DEFAULT_VEHTYPE" waiting="0.00" lane="645419926#8_0" pos="20.24" speed="16.83" angle="315.81" x="3808.85" y="2932.36"/>
        <vehicle id="4" eclass="HBEFA3/PC_G_EU4" CO2="6510.48" CO="132.70" HC="0.76" NOx="2.83" PMx="0.13" fuel="2076.54" electricity="0.00" noise="68.81" route="!4" type="DEFAULT_VEHTYPE" waiting="0.00" lane="-24926458#6_0" pos="12.70" speed="7.77" angle="131.92" x="4212.94" y="2847.05"/>
        <vehicle id="7" eclass="HBEFA3/PC_G_EU4" CO2="4893.32" CO="102.55" HC="0.58" NOx="2.07" PMx="0.09" fuel="1560.75" electricity="0.00" noise="65.52" route="!7" type="DEFAULT_VEHTYPE" waiting="0.00" lane="4987249#38_1" pos="3.85" speed="7.49" angle="53.49" x="3482.87" y="2735.82"/>
    </timestep>
    <timestep time="11.50">
        <vehicle id="0" eclass="HBEFA3/PC_G_EU4" CO2="19473.94" CO="326.53" HC="1.97" NOx="8.57" PMx="0.46" fuel="6211.19" electricity="0.00" noise="77.98" route="!0" type="DEFAULT_VEHTYPE" waiting="0.00" lane=":377615254_3_0" pos="12.58" speed="23.23" angle="51.93" x="3058.15" y="2410.42"/>
        <vehicle id="1" eclass="HBEFA3/PC_G_EU4" CO2="1606.76" CO="0.00" HC="0.00" NOx="0.38" PMx="0.00" fuel="512.50" electricity="0.00" noise="63.44" route="!1" type="DEFAULT_VEHTYPE" waiting="0.00" lane="-771326027#1_0" pos="4.91" speed="12.93" angle="136.17" x="2735.55" y="2915.98"/>
        <vehicle id="2" eclass="HBEFA3/PC_G_EU4" CO2="14836.92" CO="233.15" HC="1.43" NOx="6.50" PMx="0.34" fuel="4732.22" electricity="0.00" noise="75.31" route="!2" type="DEFAULT_VEHTYPE" waiting="0.00" lane="645419926#8_0" pos="29.29" speed="18.10" angle="315.81" x="3802.54" y="2938.85"/>
        <vehicle id="4" eclass="HBEFA3/PC_G_EU4" CO2="5357.80" CO="100.95" HC="0.59" NOx="2.27" PMx="0.10" fuel="1708.89" electricity="0.00" noise="66.20" route="!4" type="DEFAULT_VEHTYPE" waiting="0.00" lane="-24926458#6_0" pos="16.95" speed="8.50" angle="131.92" x="4216.11" y="2844.21"/>
        <vehicle id="7" eclass="HBEFA3/PC_G_EU4" CO2="7605.26" CO="145.12" HC="0.84" NOx="3.32" PMx="0.16" fuel="2425.72" electricity="0.00" noise="70.30" route="!7" type="DEFAULT_VEHTYPE" waiting="0.00" lane="4987249#38_1" pos="8.20" speed="8.70" angle="53.50" x="3486.37" y="2738.41"/>
    </timestep>
    <timestep time="12.00">
        <vehicle id="0" eclass="HBEFA3/PC_G_EU4" CO2="20305.52" CO="346.51" HC="2.08" NOx="8.93" PMx="0.49" fuel="6476.42" electricity="0.00" noise="78.40" route="!0" type="DEFAULT_VEHTYPE" waiting="0.00" lane="4987249#12_0" pos="4.00" speed="24.49" angle="51.98" x="3067.80" y="2417.96"/>
        <vehicle id="1" eclass="HBEFA3/PC_G_EU4" CO2="2004.54" CO="0.00" HC="0.01" NOx="0.57" PMx="0.00" fuel="639.37" electricity="0.00" noise="63.68" route="!1" type="DEFAULT_VEHTYPE" waiting="0.00" lane="-771326027#1_0" pos="11.36" speed="12.89" angle="136.17" x="2740.02" y="2911.32"/>
        <vehicle id="12" eclass="HBEFA3/PC_G_EU4" CO2="2624.72" CO="164.78" HC="0.81" NOx="1.20" PMx="0.07" fuel="837.22" electricity="0.00" noise="55.94" route="!12" type="DEFAULT_VEHTYPE" waiting="0.00" lane="771321486#1_0" pos="5.10" speed="0.00" angle="138.23" x="3097.09" y="3345.20"/>
        <vehicle id="2" eclass="HBEFA3/PC_G_EU4" CO2="12761.67" CO="188.33" HC="1.17" NOx="5.50" PMx="0.28" fuel="4070.32" electricity="0.00" noise="73.57" route="!2" type="DEFAULT_VEHTYPE" waiting="0.00" lane="645419926#8_0" pos="38.84" speed="19.08" angle="322.01" x="3796.30" y="2946.04"/>
        <vehicle id="4" eclass="HBEFA3/PC_G_EU4" CO2="7511.69" CO="134.34" HC="0.79" NOx="3.25" PMx="0.15" fuel="2395.87" electricity="0.00" noise="69.59" route="!4" type="DEFAULT_VEHTYPE" waiting="0.00" lane=":7201338991_7_0" pos="4.65" speed="9.59" angle="131.93" x="4219.67" y="2841.01"/>