<?xml version="1.0" encoding="UTF-8"?>

<!-- generated on 2025-05-17 09:31:09 by Eclipse SUMO GUI Version 1.22.0
<sumoConfiguration xmlns:xsi="http://www.w3.org/2001/XMLSchema-instance" xsi:noNamespaceSchemaLocation="http://sumo.dlr.de/xsd/sumoConfiguration.xsd">

    <input>
        <net-file value="C:/Users/tefah/OneDrive/Desktop/SUMO FILES/sumotestmap.net.xml"/>
        <route-files value="C:/Users/tefah/OneDrive/Desktop/SUMO FILES/routes.rou.xml"/>
    </input>

    <output>
        <fcd-output value="fcd_output.xml"/>
        <full-output value="C:/Users/tefah/OneDrive/Desktop/SUMO FILES/results.xml"/>
    </output>

    <time>
        <begin value="0"/>
        <end value="100"/>
    </time>

    <traci_server>
        <remote-port value="59883"/>
    </traci_server>

</sumoConfiguration>
-->

<fcd-export xmlns:xsi="http://www.w3.org/2001/XMLSchema-instance" xsi:noNamespaceSchemaLocation="http://sumo.dlr.de/xsd/fcd_file.xsd">
    <timestep time="0.00">
        <vehicle id="0" x="2960.40" y="2309.31" angle="26.84" type="DEFAULT_VEHTYPE" speed="0.00" pos="3.63" lane="4987249#2_0" slope="0.00"/>
    </timestep>
    <timestep time="1.00">
        <vehicle id="0" x="2961.57" y="2311.57" angle="26.39" type="DEFAULT_VEHTYPE" speed="2.55" pos="2.55" lane=":7872192240_0_0" slope="0.00"/>
        <vehicle id="1" x="2661.21" y="2983.73" angle="130.66" type="DEFAULT_VEHTYPE" speed="0.00" pos="5.10" lane="-771326027#3_0" slope="0.00"/>
    </timestep>
    <timestep time="2.00">
        <vehicle id="0" x="2963.49" y="2315.30" angle="27.32" type="DEFAULT_VEHTYPE" speed="4.22" pos="1.78" lane="4987249#3_0" slope="0.00"/>
        <vehicle id="1" x="2663.00" y="2982.19" angle="130.66" type="DEFAULT_VEHTYPE" speed="2.36" pos="7.46" lane="-771326027#3_0" slope="0.00"/>
        <vehicle id="2" x="3869.29" y="2875.65" angle="312.10" type="DEFAULT_VEHTYPE" speed="0.00" pos="0.20" lane="645419926#6_0" slope="0.00"/>
    </timestep>
    <timestep time="3.00">
        <vehicle id="0" x="2966.75" y="2321.10" angle="29.30" type="DEFAULT_VEHTYPE" speed="6.72" pos="8.50" lane="4987249#3_0" slope="0.00"/>
        <vehicle id="1" x="2666.75" y="2978.97" angle="130.66" type="DEFAULT_VEHTYPE" speed="4.94" pos="12.41" lane="-771326027#3_0" slope="0.00"/>
        <vehicle id="2" x="3867.99" y="2876.82" angle="312.10" type="DEFAULT_VEHTYPE" speed="1.75" pos="1.75" lane=":7201339016_0_0" slope="0.00"/>
    </timestep>
    <timestep time="4.00">
        <vehicle id="0" x="2971.37" y="2328.59" angle="32.15" type="DEFAULT_VEHTYPE" speed="8.87" pos="2.73" lane=":7872192244_0_0" slope="0.00"/>
        <vehicle id="1" x="2672.34" y="2974.16" angle="130.66" type="DEFAULT_VEHTYPE" speed="7.37" pos="19.78" lane="-771326027#3_0" slope="0.00"/>
        <vehicle id="2" x="3865.26" y="2879.28" angle="311.98" type="DEFAULT_VEHTYPE" speed="3.67" pos="5.43" lane=":7201339016_0_0" slope="0.00"/>
        <vehicle id="4" x="4214.55" y="2849.91" angle="311.92" type="DEFAULT_VEHTYPE" speed="0.00" pos="5.10" lane="24926458#6_0" slope="0.00"/>
    </timestep>
    <timestep time="5.00">
        <vehicle id="0" x="2977.46" y="2337.55" angle="35.44" type="DEFAULT_VEHTYPE" speed="10.87" pos="8.60" lane="4987249#4_0" slope="0.00"/>
        <vehicle id="1" x="2679.80" y="2967.75" angle="130.66" type="DEFAULT_VEHTYPE" speed="9.83" pos="29.62" lane="-771326027#3_0" slope="0.00"/>
        <vehicle id="2" x="3861.25" y="2882.89" angle="312.00" type="DEFAULT_VEHTYPE" speed="5.40" pos="3.70" lane="645419926#7_0" slope="0.00"/>
        <vehicle id="4" x="4213.08" y="2851.23" angle="311.92" type="DEFAULT_VEHTYPE" speed="1.98" pos="7.08" lane="24926458#6_0" slope="0.00"/>
    </timestep>
    <timestep time="6.00">
        <vehicle id="0" x="2985.19" y="2347.68" angle="40.50" type="DEFAULT_VEHTYPE" speed="12.95" pos="3.03" lane="4987249#5_0" slope="0.00"/>
        <vehicle id="1" x="2688.32" y="2960.44" angle="130.66" type="DEFAULT_VEHTYPE" speed="11.23" pos="40.84" lane="-771326027#3_0" slope="0.00"/>
        <vehicle id="2" x="3855.57" y="2888.00" angle="312.01" type="DEFAULT_VEHTYPE" speed="7.64" pos="11.35" lane="645419926#7_0" slope="0.00"/>
        <vehicle id="4" x="4209.96" y="2854.03" angle="311.92" type="DEFAULT_VEHTYPE" speed="4.19" pos="11.27" lane="24926458#6_0" slope="0.00"/>
    </timestep>
    <timestep time="7.00">
        <vehicle id="0" x="2994.90" y="2358.51" angle="43.04" type="DEFAULT_VEHTYPE" speed="14.62" pos="4.03" lane=":7872192246_0_0" slope="0.00"/>
        <vehicle id="1" x="2698.01" y="2952.11" angle="130.66" type="DEFAULT_VEHTYPE" speed="12.78" pos="53.62" lane="-771326027#3_0" slope="0.00"/>
        <vehicle id="2" x="3848.06" y="2894.77" angle="312.01" type="DEFAULT_VEHTYPE" speed="10.12" pos="21.46" lane="645419926#7_0" slope="0.00"/>
        <vehicle id="4" x="4206.57" y="2857.07" angle="311.92" type="DEFAULT_VEHTYPE" speed="4.55" pos="15.82" lane="24926458#6_0" slope="0.00"/>
        <vehicle id="7" x="3470.69" y="2722.81" angle="53.46" type="DEFAULT_VEHTYPE" speed="0.00" pos="5.10" lane="4987249#37_0" slope="0.00"/>
    </timestep>
    <timestep time="8.00">
        <vehicle id="0" x="3006.41" y="2369.65" angle="46.53" type="DEFAULT_VEHTYPE" speed="16.13" pos="0.20" lane=":7206789987_0_0" slope="0.00"/>
        <vehicle id="1" x="2707.84" y="2943.67" angle="130.71" type="DEFAULT_VEHTYPE" speed="12.95" pos="0.48" lane=":6517615540_6_0" slope="0.00"/>
        <vehicle id="2" x="3839.55" y="2902.44" angle="312.01" type="DEFAULT_VEHTYPE" speed="11.45" pos="32.92" lane="645419926#7_0" slope="0.00"/>
        <vehicle id="4" x="4203.96" y="2858.03" angle="299.30" type="DEFAULT_VEHTYPE" speed="2.97" pos="0.26" lane=":6579766762_9_0" slope="0.00"/>
        <vehicle id="7" x="3470.22" y="2726.44" angle="53.46" type="DEFAULT_VEHTYPE" speed="1.79" pos="6.89" lane="4987249#37_1" slope="0.00"/>
    </timestep>
    <timestep time="9.00">
        <vehicle id="0" x="3019.83" y="2380.57" angle="52.94" type="DEFAULT_VEHTYPE" speed="17.47" pos="14.36" lane="4987249#8_0" slope="0.00"/>
        <vehicle id="1" x="2717.18" y="2934.93" angle="134.56" type="DEFAULT_VEHTYPE" speed="12.79" pos="13.27" lane=":6517615540_6_0" slope="0.00"/>
        <vehicle id="2" x="3829.98" y="2911.05" angle="312.01" type="DEFAULT_VEHTYPE" speed="12.88" pos="45.80" lane="645419926#7_0" slope="0.00"/>
        <vehicle id="4" x="4203.63" y="2855.42" angle="221.22" type="DEFAULT_VEHTYPE" speed="3.15" pos="0.19" lane="-24926458#6_0" slope="0.00"/>
        <vehicle id="7" x="3473.57" y="2728.93" angle="53.46" type="DEFAULT_VEHTYPE" speed="4.18" pos="11.07" lane="4987249#37_1" slope="0.00"/>
    </timestep>
    <timestep time="10.00">
        <vehicle id="0" x="3035.21" y="2392.41" angle="51.87" type="DEFAULT_VEHTYPE" speed="19.36" pos="8.48" lane="4987249#9_0" slope="0.00"/>
        <vehicle id="1" x="2725.42" y="2926.48" angle="135.94" type="DEFAULT_VEHTYPE" speed="11.80" pos="4.73" lane=":6517615532_13_0" slope="0.00"/>
        <vehicle id="2" x="3819.72" y="2921.17" angle="315.73" type="DEFAULT_VEHTYPE" speed="14.41" pos="4.64" lane="645419926#8_0" slope="0.00"/>
        <vehicle id="4" x="4207.50" y="2851.94" angle="131.92" type="DEFAULT_VEHTYPE" speed="5.20" pos="5.39" lane="-24926458#6_0" slope="0.00"/>
        <vehicle id="7" x="3478.01" y="2732.22" angle="53.46" type="DEFAULT_VEHTYPE" speed="5.52" pos="2.80" lane=":7872488971_0_1" slope="0.00"/>
    </timestep>
    <timestep time="11.00">
        <vehicle id="0" x="3051.78" y="2405.43" angle="51.92" type="DEFAULT_VEHTYPE" speed="21.08" pos="4.48" lane=":377615254_3_0" slope="0.00"/>
        <vehicle id="1" x="2733.87" y="2917.73" angle="136.06" type="DEFAULT_VEHTYPE" speed="12.16" pos="2.48" lane="-771326027#1_0" slope="0.00"/>
        <vehicle id="2" x="3808.68" y="2932.54" angle="315.81" type="DEFAULT_VEHTYPE" speed="15.85" pos="20.49" lane="645419926#8_0" slope="0.00"/>
        <vehicle id="4" x="4213.09" y="2846.92" angle="131.92" type="DEFAULT_VEHTYPE" speed="7.51" pos="12.90" lane="-24926458#6_0" slope="0.00"/>
        <vehicle id="7" x="3484.22" y="2736.82" angle="53.50" type="DEFAULT_VEHTYPE" speed="7.73" pos="5.52" lane="4987249#38_1" slope="0.00"/>
    </timestep>
    <timestep time="12.00">
        <vehicle id="0" x="3070.42" y="2420.01" angle="51.98" type="DEFAULT_VEHTYPE" speed="23.66" pos="7.32" lane="4987249#12_0" slope="0.00"/>
        <vehicle id="1" x="2742.70" y="2908.53" angle="136.17" type="DEFAULT_VEHTYPE" speed="12.75" pos="15.23" lane="-771326027#1_0" slope="0.00"/>
        <vehicle id="12" x="3097.09" y="3345.20" angle="138.23" type="DEFAULT_VEHTYPE" speed="0.00" pos="5.10" lane="771321486#1_0" slope="0.00"/>
        <vehicle id="2" x="3796.80" y="2945.39" angle="320.89" type="DEFAULT_VEHTYPE" speed="17.52" pos="38.02" lane="645419926#8_0" slope="0.00"/>
        <vehicle id="4" x="4220.52" y="2840.25" angle="131.93" type="DEFAULT_VEHTYPE" speed="9.98" pos="5.80" lane=":7201338991_7_0" slope="0.00"/>
        <vehicle id="7" x="3491.59" y="2742.27" angle="53.50" type="DEFAULT_VEHTYPE" speed="9.16" pos="14.68" lane="4987249#38_1" slope="0.00"/>
    </timestep>
    <timestep time="13.00">
        <vehicle id="0" x="3090.83" y="2435.97" angle="51.98" type="DEFAULT_VEHTYPE" speed="25.91" pos="33.23" lane="4987249#12_0" slope="0.00"/>
        <vehicle id="1" x="2751.63" y="2899.23" angle="136.17" type="DEFAULT_VEHTYPE" speed="12.90" pos="28.13" lane="-771326027#1_0" slope="0.00"/>
        <vehicle id="12" x="3098.28" y="3343.86" angle="138.23" type="DEFAULT_VEHTYPE" speed="1.79" pos="6.89" lane="771321486#1_0" slope="0.00"/>
        <vehicle id="2" x="3788.76" y="2961.19" angle="339.64" type="DEFAULT_VEHTYPE" speed="17.81" pos="55.83" lane="645419926#8_0" slope="0.00"/>
        <vehicle id="4" x="4229.26" y="2832.40" angle="131.91" type="DEFAULT_VEHTYPE" speed="11.75" pos="3.15" lane="-24926458#5_0" slope="0.00"/>
        <vehicle id="7" x="3497.31" y="2746.82" angle="50.56" type="DEFAULT_VEHTYPE" speed="7.33" pos="1.64" lane=":7872488964_2_0" slope="0.00"/>
    </timestep>
    <timestep time="14.00">
        <vehicle id="0" x="3112.71" y="2453.06" angle="52.00" type="DEFAULT_VEHTYPE" speed="27.77" pos="12.56" lane="4987249#13_0" slope="0.00"/>
        <vehicle id="1" x="2760.05" y="2890.46" angle="136.17" type="DEFAULT_VEHTYPE" speed="12.16" pos="40.29" lane="-771326027#1_0" slope="0.00"/>
        <vehicle id="12" x="3100.86" y="3340.97" angle="138.23" type="DEFAULT_VEHTYPE" speed="3.88" pos="10.77" lane="771321486#1_0" slope="0.00"/>
        <vehicle id="2" x="3786.22" y="2974.23" angle="353.41" type="DEFAULT_VEHTYPE" speed="13.31" pos="69.14" lane="645419926#8_0" slope="0.00"/>
        <vehicle id="4" x="4238.99" y="2823.67" angle="131.90" type="DEFAULT_VEHTYPE" speed="13.07" pos="16.21" lane="-24926458#5_0" slope="0.00"/>
        <vehicle id="7" x="3497.82" y="2753.79" angle="355.82" type="DEFAULT_VEHTYPE" speed="7.24" pos="1.28" lane="765710545_0" slope="0.00"/>
    </timestep>
    <timestep time="15.00">
        <vehicle id="0" x="3135.03" y="2470.54" angle="51.97" type="DEFAULT_VEHTYPE" speed="28.35" pos="3.76" lane=":377615466_1_0" slope="0.00"/>
        <vehicle id="1" x="2768.51" y="2881.64" angle="136.17" type="DEFAULT_VEHTYPE" speed="12.23" pos="52.51" lane="-771326027#1_0" slope="0.00"/>
        <vehicle id="12" x="3104.46" y="3336.94" angle="138.23" type="DEFAULT_VEHTYPE" speed="5.40" pos="16.16" lane="771321486#1_0" slope="0.00"/>
        <vehicle id="15" x="3199.20" y="2261.14" angle="36.76" type="DEFAULT_VEHTYPE" speed="0.00" pos="5.10" lane="700148834#3_0" slope="0.00"/>
        <vehicle id="2" x="3786.33" y="2983.03" angle="2.47" type="DEFAULT_VEHTYPE" speed="8.81" pos="77.95" lane="645419926#8_0" slope="0.00"/>
        <vehicle id="4" x="4248.83" y="2814.84" angle="131.90" type="DEFAULT_VEHTYPE" speed="13.22" pos="29.43" lane="-24926458#5_0" slope="0.00"/>
        <vehicle id="7" x="3491.05" y="2757.18" angle="281.83" type="DEFAULT_VEHTYPE" speed="8.18" pos="9.46" lane="765710545_0" slope="0.00"/>
    </timestep>
    <timestep time="16.00">
        <vehicle id="0" x="3157.23" y="2487.89" angle="51.99" type="DEFAULT_VEHTYPE" speed="28.17" pos="10.33" lane="4987249#17_0" slope="0.00"/>
        <vehicle id="1" x="2776.91" y="2872.89" angle="136.17" type="DEFAULT_VEHTYPE" speed="12.12" pos="64.63" lane="-771326027#1_0" slope="0.00"/>
        <vehicle id="12" x="3109.75" y="3331.01" angle="138.23" type="DEFAULT_VEHTYPE" speed="7.95" pos="24.11" lane="771321486#1_0" slope="0.00"/>
        <vehicle id="15" x="3200.13" y="2262.37" angle="36.76" type="DEFAULT_VEHTYPE" speed="1.54" pos="6.64" lane="700148834#3_0" slope="0.00"/>
        <vehicle id="2" x="3786.91" y="2987.45" angle="7.09" type="DEFAULT_VEHTYPE" speed="4.47" pos="82.42" lane="645419926#8_0" slope="0.00"/>
        <vehicle id="4" x="4258.63" y="2806.04" angle="131.92" type="DEFAULT_VEHTYPE" speed="13.17" pos="9.17" lane=":7201339004_13_0" slope="0.00"/>
        <vehicle id="7" x="3480.64" y="2754.74" angle="257.76" type="DEFAULT_VEHTYPE" speed="10.69" pos="6.77" lane=":7872488963_2_0" slope="0.00"/>
    </timestep>
    <timestep time="17.00">
        <vehicle id="0" x="3179.42" y="2505.24" angle="51.98" type="DEFAULT_VEHTYPE" speed="28.16" pos="3.97" lane=":7872495038_0_0" slope="0.00"/>
        <vehicle id="1" x="2785.70" y="2863.73" angle="136.17" type="DEFAULT_VEHTYPE" speed="12.70" pos="77.33" lane="-771326027#1_0" slope="0.00"/>
        <vehicle id="12" x="3115.92" y="3324.11" angle="138.23" type="DEFAULT_VEHTYPE" speed="9.26" pos="33.37" lane="771321486#1_0" slope="0.00"/>
        <vehicle id="15" x="3201.89" y="2264.73" angle="36.76" type="DEFAULT_VEHTYPE" speed="2.95" pos="9.59" lane="700148834#3_0" slope="0.00"/>
        <vehicle id="2" x="3788.26" y="2993.39" angle="13.38" type="DEFAULT_VEHTYPE" speed="6.10" pos="5.92" lane=":7201339345_0_0" slope="0.00"/>
        <vehicle id="4" x="4268.75" y="2796.96" angle="131.92" type="DEFAULT_VEHTYPE" speed="13.59" pos="8.30" lane="-24926458#4_0" slope="0.00"/>
        <vehicle id="7" x="3469.11" y="2748.39" angle="235.00" type="DEFAULT_VEHTYPE" speed="13.27" pos="3.42" lane="24667122#53_1" slope="0.00"/>
    </timestep>
    <timestep time="18.00">
        <vehicle id="0" x="3202.31" y="2523.14" angle="51.99" type="DEFAULT_VEHTYPE" speed="29.06" pos="8.40" lane="4987249#20_0" slope="0.00"/>
        <vehicle id="1" x="2793.81" y="2855.00" angle="137.41" type="DEFAULT_VEHTYPE" speed="11.92" pos="9.38" lane=":6517459793_7_0" slope="0.00"/>
        <vehicle id="12" x="3123.72" y="3315.37" angle="138.24" type="DEFAULT_VEHTYPE" speed="11.72" pos="1.56" lane="771321486#2_0" slope="0.00"/>
        <vehicle id="15" x="3204.87" y="2268.73" angle="36.76" type="DEFAULT_VEHTYPE" speed="4.99" pos="14.57" lane="700148834#3_0" slope="0.00"/>
        <vehicle id="2" x="3792.05" y="3000.69" angle="31.34" type="DEFAULT_VEHTYPE" speed="8.28" pos="14.20" lane=":7201339345_0_0" slope="0.00"/>
        <vehicle id="4" x="4279.11" y="2787.66" angle="131.92" type="DEFAULT_VEHTYPE" speed="13.93" pos="22.23" lane="-24926458#4_0" slope="0.00"/>
        <vehicle id="7" x="3456.61" y="2739.13" angle="233.47" type="DEFAULT_VEHTYPE" speed="15.55" pos="10.46" lane="24667122#54_1" slope="0.00"/>
    </timestep>
    <timestep time="19.00">
        <vehicle id="0" x="3225.21" y="2540.44" angle="53.39" type="DEFAULT_VEHTYPE" speed="28.74" pos="2.02" lane=":7872495023_0_0" slope="0.00"/>
        <vehicle id="1" x="2801.69" y="2846.20" angle="138.67" type="DEFAULT_VEHTYPE" speed="11.82" pos="6.73" lane="-771326027#0_0" slope="0.00"/>
        <vehicle id="12" x="3129.55" y="3308.85" angle="138.24" type="DEFAULT_VEHTYPE" speed="8.75" pos="10.31" lane="771321486#2_0" slope="0.00"/>
        <vehicle id="15" x="3208.79" y="2273.98" angle="36.76" type="DEFAULT_VEHTYPE" speed="6.55" pos="21.13" lane="700148834#3_0" slope="0.00"/>
        <vehicle id="19" x="2717.33" y="2118.55" angle="158.81" type="DEFAULT_VEHTYPE" speed="0.00" pos="5.10" lane="701296898#1_0" slope="0.00"/>
        <vehicle id="2" x="3799.28" y="3008.60" angle="44.62" type="DEFAULT_VEHTYPE" speed="10.73" pos="5.96" lane="4987249#61_0" slope="0.00"/>
        <vehicle id="4" x="4288.93" y="2778.84" angle="131.92" type="DEFAULT_VEHTYPE" speed="13.20" pos="35.42" lane="-24926458#4_0" slope="0.00"/>
        <vehicle id="7" x="3442.72" y="2728.83" angle="233.46" type="DEFAULT_VEHTYPE" speed="17.30" pos="8.80" lane="24667122#55_1" slope="0.00"/>
    </timestep>
    <timestep time="20.00">
        <vehicle id="0" x="3248.24" y="2557.55" angle="53.40" type="DEFAULT_VEHTYPE" speed="28.70" pos="6.63" lane="4987249#23_0" slope="0.00"/>
        <vehicle id="1" x="2808.46" y="2838.50" angle="138.67" type="DEFAULT_VEHTYPE" speed="10.26" pos="16.98" lane="-771326027#0_0" slope="0.00"/>
        <vehicle id="12" x="3132.38" y="3305.68" angle="138.24" type="DEFAULT_VEHTYPE" speed="4.25" pos="14.56" lane="771321486#2_0" slope="0.00"/>
        <vehicle id="15" x="3213.75" y="2280.61" angle="36.76" type="DEFAULT_VEHTYPE" speed="8.28" pos="29.40" lane="700148834#3_0" slope="0.00"/>
        <vehicle id="19" x="2718.16" y="2116.67" angle="157.75" type="DEFAULT_VEHTYPE" speed="2.06" pos="7.16" lane="701296898#1_0" slope="0.00"/>
        <vehicle id="2" x="3808.19" y="3017.64" angle="44.58" type="DEFAULT_VEHTYPE" speed="12.69" pos="4.62" lane=":7872626544_0_0" slope="0.00"/>
        <vehicle id="4" x="4298.38" y="2770.36" angle="131.92" type="DEFAULT_VEHTYPE" speed="12.70" pos="48.12" lane="-24926458#4_0" slope="0.00"/>
        <vehicle id="7" x="3427.19" y="2717.32" angle="233.45" type="DEFAULT_VEHTYPE" speed="19.33" pos="7.27" lane="24667122#56_1" slope="0.00"/>
    </timestep>
    <timestep time="21.00">
        <vehicle id="0" x="3271.38" y="2574.75" angle="53.38" type="DEFAULT_VEHTYPE" speed="28.83" pos="15.60" lane="4987249#24_0" slope="0.00"/>
        <vehicle id="1" x="2813.42" y="2832.87" angle="138.67" type="DEFAULT_VEHTYPE" speed="7.51" pos="24.49" lane="-771326027#0_0" slope="0.00"/>
        <vehicle id="12" x="3136.83" y="3300.70" angle="138.23" type="DEFAULT_VEHTYPE" speed="6.68" pos="6.34" lane=":6603274472_3_0" slope="0.00"/>
        <vehicle id="15" x="3219.74" y="2288.63" angle="36.76" type="DEFAULT_VEHTYPE" speed="10.02" pos="39.42" lane="700148834#3_0" slope="0.00"/>
        <vehicle id="19" x="2719.68" y="2113.34" angle="155.68" type="DEFAULT_VEHTYPE" speed="3.65" pos="10.81" lane="701296898#1_0" slope="0.00"/>
        <vehicle id="2" x="3818.35" y="3027.97" angle="44.46" type="DEFAULT_VEHTYPE" speed="14.48" pos="14.08" lane=":7201338982_3_0" slope="0.00"/>
        <vehicle id="21" x="4394.18" y="3172.21" angle="126.10" type="DEFAULT_VEHTYPE" speed="0.00" pos="0.20" lane="-700840147#2_0" slope="0.00"/>
        <vehicle id="4" x="4304.86" y="2764.54" angle="131.92" type="DEFAULT_VEHTYPE" speed="8.72" pos="56.84" lane="-24926458#4_0" slope="0.00"/>
        <vehicle id="7" x="3410.04" y="2704.60" angle="233.41" type="DEFAULT_VEHTYPE" speed="21.35" pos="8.08" lane="24667122#57_1" slope="0.00"/>
    </timestep>
    <timestep time="22.00">
        <vehicle id="0" x="3294.18" y="2591.68" angle="53.39" type="DEFAULT_VEHTYPE" speed="28.40" pos="20.12" lane="4987249#25_0" slope="0.00"/>
        <vehicle id="1" x="2816.95" y="2828.23" angle="143.48" type="DEFAULT_VEHTYPE" speed="5.86" pos="2.59" lane=":344537834_3_0" slope="0.00"/>
        <vehicle id="12" x="3142.94" y="3293.86" angle="138.23" type="DEFAULT_VEHTYPE" speed="9.17" pos="1.07" lane="771321486#3_0" slope="0.00"/>
        <vehicle id="15" x="3227.12" y="2298.50" angle="36.76" type="DEFAULT_VEHTYPE" speed="12.32" pos="51.74" lane="700148834#3_0" slope="0.00"/>
        <vehicle id="19" x="2722.25" y="2108.47" angle="152.08" type="DEFAULT_VEHTYPE" speed="5.52" pos="16.33" lane="701296898#1_0" slope="0.00"/>
        <vehicle id="2" x="3830.39" y="3039.99" angle="45.22" type="DEFAULT_VEHTYPE" speed="17.03" pos="11.36" lane="4987249#64_0" slope="0.00"/>
        <vehicle id="21" x="4395.60" y="3170.20" angle="135.37" type="DEFAULT_VEHTYPE" speed="2.52" pos="2.52" lane=":7201338945_6_0" slope="0.00"/>
        <vehicle id="4" x="4308.00" y="2761.72" angle="131.92" type="DEFAULT_VEHTYPE" speed="4.22" pos="61.06" lane="-24926458#4_0" slope="0.00"/>
        <vehicle id="7" x="3391.19" y="2690.62" angle="233.45" type="DEFAULT_VEHTYPE" speed="23.47" pos="11.52" lane="24667122#58_1" slope="0.00"/>
    </timestep>
    <timestep time="23.00">
        <vehicle id="0" x="3316.82" y="2608.51" angle="53.39" type="DEFAULT_VEHTYPE" speed="28.21" pos="12.66" lane="4987249#26_0" slope="0.00"/>
        <vehicle id="1" x="2816.05" y="2823.66" angle="190.76" type="DEFAULT_VEHTYPE" speed="4.93" pos="7.51" lane=":344537834_3_0" slope="0.00"/>
        <vehicle id="12" x="3150.38" y="3285.53" angle="138.21" type="DEFAULT_VEHTYPE" speed="11.17" pos="12.24" lane="771321486#3_0" slope="0.00"/>
        <vehicle id="15" x="3235.84" y="2310.18" angle="36.76" type="DEFAULT_VEHTYPE" speed="14.57" pos="66.31" lane="700148834#3_0" slope="0.00"/>
        <vehicle id="19" x="2726.52" y="2101.65" angle="146.73" type="DEFAULT_VEHTYPE" speed="8.05" pos="24.38" lane="701296898#1_0" slope="0.00"/>
        <vehicle id="2" x="3844.21" y="3053.81" angle="44.92" type="DEFAULT_VEHTYPE" speed="19.54" pos="11.07" lane="4987249#65_0" slope="0.00"/>
        <vehicle id="21" x="4394.42" y="3166.31" angle="192.16" type="DEFAULT_VEHTYPE" speed="4.28" pos="6.80" lane=":7201338945_6_0" slope="0.00"/>
        <vehicle id="4" x="4312.31" y="2757.85" angle="131.93" type="DEFAULT_VEHTYPE" speed="5.79" pos="5.50" lane=":6579766780_7_0" slope="0.00"/>
        <vehicle id="7" x="3370.72" y="2675.46" angle="233.46" type="DEFAULT_VEHTYPE" speed="25.45" pos="2.84" lane=":7872495006_0_1" slope="0.00"/>
    </timestep>
    <timestep time="24.00">
        <vehicle id="0" x="3340.46" y="2626.08" angle="53.31" type="DEFAULT_VEHTYPE" speed="29.44" pos="0.81" lane="4987249#28_0" slope="0.00"/>
        <vehicle id="1" x="2812.55" y="2820.21" angle="225.38" type="DEFAULT_VEHTYPE" speed="4.92" pos="3.50" lane="828126964#16_0" slope="0.00"/>
        <vehicle id="12" x="3158.87" y="3276.03" angle="138.21" type="DEFAULT_VEHTYPE" speed="12.74" pos="24.98" lane="771321486#3_0" slope="0.00"/>
        <vehicle id="15" x="3245.57" y="2323.75" angle="33.64" type="DEFAULT_VEHTYPE" speed="16.71" pos="9.68" lane=":7208831517_3_0" slope="0.00"/>
        <vehicle id="19" x="2730.36" y="2096.61" angle="142.43" type="DEFAULT_VEHTYPE" speed="6.34" pos="30.71" lane="701296898#1_0" slope="0.00"/>
        <vehicle id="2" x="3859.20" y="3068.71" angle="45.62" type="DEFAULT_VEHTYPE" speed="21.17" pos="6.85" lane=":7201338914_3_0" slope="0.00"/>
        <vehicle id="21" x="4391.04" y="3162.44" angle="221.36" type="DEFAULT_VEHTYPE" speed="5.14" pos="4.01" lane="24926567_0" slope="0.00"/>
        <vehicle id="24" x="3106.83" y="2448.47" angle="52.00" type="DEFAULT_VEHTYPE" speed="0.00" pos="5.10" lane="4987249#13_0" slope="0.00"/>
        <vehicle id="4" x="4318.44" y="2752.35" angle="131.92" type="DEFAULT_VEHTYPE" speed="8.24" pos="2.54" lane="-24926458#3_0" slope="0.00"/>
        <vehicle id="7" x="3348.20" y="2658.76" angle="233.46" type="DEFAULT_VEHTYPE" speed="28.03" pos="8.05" lane="24667122#61_1" slope="0.00"/>
    </timestep>
    <timestep time="25.00">
        <vehicle id="0" x="3363.16" y="2642.95" angle="53.39" type="DEFAULT_VEHTYPE" speed="28.28" pos="9.27" lane="4987249#29_0" slope="0.00"/>
        <vehicle id="1" x="2807.79" y="2815.90" angle="227.83" type="DEFAULT_VEHTYPE" speed="6.42" pos="9.92" lane="828126964#16_0" slope="0.00"/>
        <vehicle id="12" x="3166.94" y="3266.99" angle="138.23" type="DEFAULT_VEHTYPE" speed="12.12" pos="8.34" lane=":6600507977_2_0" slope="0.00"/>
        <vehicle id="15" x="3255.00" y="2339.00" angle="29.68" type="DEFAULT_VEHTYPE" speed="18.08" pos="4.36" lane="24801830#0_0" slope="0.00"/>
        <vehicle id="19" x="2732.78" y="2093.64" angle="140.62" type="DEFAULT_VEHTYPE" speed="3.84" pos="0.24" lane=":6600550496_3_0" slope="0.00"/>
        <vehicle id="2" x="3875.49" y="3084.24" angle="46.66" type="DEFAULT_VEHTYPE" speed="22.53" pos="5.75" lane="4987249#68_0" slope="0.00"/>
        <vehicle id="21" x="4386.25" y="3157.23" angle="222.56" type="DEFAULT_VEHTYPE" speed="7.08" pos="11.10" lane="24926567_0" slope="0.00"/>
        <vehicle id="24" x="3108.87" y="2450.07" angle="52.00" type="DEFAULT_VEHTYPE" speed="2.59" pos="7.69" lane="4987249#13_0" slope="0.00"/>
        <vehicle id="4" x="4326.22" y="2745.36" angle="131.91" type="DEFAULT_VEHTYPE" speed="10.45" pos="12.99" lane="-24926458#3_0" slope="0.00"/>
        <vehicle id="7" x="3325.78" y="2642.15" angle="233.47" type="DEFAULT_VEHTYPE" speed="27.91" pos="0.47" lane=":7872494994_0_1" slope="0.00"/>
    </timestep>
    <timestep time="26.00">
        <vehicle id="0" x="3386.72" y="2660.44" angle="53.36" type="DEFAULT_VEHTYPE" speed="29.34" pos="4.95" lane=":7872495005_0_0" slope="0.00"/>
        <vehicle id="1" x="2801.20" y="2809.93" angle="227.83" type="DEFAULT_VEHTYPE" speed="8.89" pos="18.81" lane="828126964#16_0" slope="0.00"/>
        <vehicle id="12" x="3175.38" y="3257.55" angle="138.23" type="DEFAULT_VEHTYPE" speed="12.66" pos="11.60" lane="771321486#4_0" slope="0.00"/>
        <vehicle id="15" x="3265.26" y="2356.60" angle="30.93" type="DEFAULT_VEHTYPE" speed="20.38" pos="24.74" lane="24801830#0_0" slope="0.00"/>
        <vehicle id="19" x="2734.64" y="2091.06" angle="144.00" type="DEFAULT_VEHTYPE" speed="3.98" pos="0.43" lane=":7154077455_2_1" slope="0.00"/>
        <vehicle id="2" x="3893.18" y="3100.18" angle="47.99" type="DEFAULT_VEHTYPE" speed="23.83" pos="3.55" lane=":7872626552_0_0" slope="0.00"/>
        <vehicle id="21" x="4379.82" y="3150.23" angle="222.56" type="DEFAULT_VEHTYPE" speed="9.51" pos="20.61" lane="24926567_0" slope="0.00"/>
        <vehicle id="24" x="3112.80" y="2453.14" angle="52.00" type="DEFAULT_VEHTYPE" speed="4.99" pos="12.68" lane="4987249#13_0" slope="0.00"/>
        <vehicle id="4" x="4335.01" y="2737.47" angle="131.91" type="DEFAULT_VEHTYPE" speed="11.82" pos="24.81" lane="-24926458#3_0" slope="0.00"/>
        <vehicle id="7" x="3302.49" y="2624.87" angle="233.45" type="DEFAULT_VEHTYPE" speed="29.00" pos="5.22" lane="24667122#64_1" slope="0.00"/>
    </timestep>
    <timestep time="27.00">
        <vehicle id="0" x="3409.80" y="2677.60" angle="53.40" type="DEFAULT_VEHTYPE" speed="28.76" pos="8.40" lane="4987249#32_0" slope="0.00"/>
        <vehicle id="1" x="2795.40" y="2800.36" angle="227.80" type="DEFAULT_VEHTYPE" speed="10.73" pos="6.48" lane=":8010992496_0_1" slope="0.00"/>
        <vehicle id="12" x="3183.43" y="3248.53" angle="138.23" type="DEFAULT_VEHTYPE" speed="12.09" pos="23.69" lane="771321486#4_0" slope="0.00"/>
        <vehicle id="15" x="3277.00" y="2375.17" angle="33.35" type="DEFAULT_VEHTYPE" speed="21.96" pos="7.99" lane=":269459926_3_0" slope="0.00"/>
        <vehicle id="19" x="2738.43" y="2094.94" angle="44.33" type="DEFAULT_VEHTYPE" speed="5.38" pos="5.81" lane=":7154077455_2_1" slope="0.00"/>
        <vehicle id="2" x="3911.67" y="3117.26" angle="46.61" type="DEFAULT_VEHTYPE" speed="25.15" pos="5.68" lane="4987249#71_0" slope="0.00"/>
        <vehicle id="21" x="4374.13" y="3144.04" angle="222.56" type="DEFAULT_VEHTYPE" speed="8.40" pos="29.01" lane="24926567_0" slope="0.00"/>
        <vehicle id="24" x="3118.53" y="2457.63" angle="51.91" type="DEFAULT_VEHTYPE" speed="7.28" pos="1.60" lane="4987249#14_0" slope="0.00"/>
        <vehicle id="4" x="4345.46" y="2728.09" angle="131.91" type="DEFAULT_VEHTYPE" speed="14.04" pos="38.85" lane="-24926458#3_0" slope="0.00"/>
        <vehicle id="7" x="3279.46" y="2607.79" angle="233.44" type="DEFAULT_VEHTYPE" speed="28.67" pos="12.18" lane="24667122#65_1" slope="0.00"/>
    </timestep>
    <timestep time="28.00">
        <vehicle id="0" x="3432.46" y="2694.44" angle="53.33" type="DEFAULT_VEHTYPE" speed="28.23" pos="2.94" lane=":7872495011_0_0" slope="0.00"/>
        <vehicle id="1" x="2785.71" y="2791.60" angle="228.04" type="DEFAULT_VEHTYPE" speed="13.07" pos="3.14" lane=":6605210299_1_1" slope="0.00"/>
        <vehicle id="12" x="3191.70" y="3239.29" angle="138.21" type="DEFAULT_VEHTYPE" speed="12.40" pos="2.20" lane="771321486#5_0" slope="0.00"/>
        <vehicle id="15" x="3291.04" y="2394.41" angle="37.98" type="DEFAULT_VEHTYPE" speed="23.83" pos="16.73" lane="24801830#1_0" slope="0.00"/>
        <vehicle id="19" x="2743.71" y="2100.23" angle="45.22" type="DEFAULT_VEHTYPE" speed="7.42" pos="1.40" lane=":6064884072_1_1" slope="0.00"/>
        <vehicle id="2" x="3931.97" y="3135.84" angle="48.49" type="DEFAULT_VEHTYPE" speed="27.57" pos="11.28" lane="4987249#72_0" slope="0.00"/>
        <vehicle id="21" x="4371.20" y="3140.84" angle="222.56" type="DEFAULT_VEHTYPE" speed="4.34" pos="33.35" lane="24926567_0" slope="0.00"/>
        <vehicle id="24" x="3126.21" y="2463.64" angle="51.94" type="DEFAULT_VEHTYPE" speed="9.74" pos="11.35" lane="4987249#14_0" slope="0.00"/>
        <vehicle id="28" x="3510.06" y="3270.46" angle="228.27" type="DEFAULT_VEHTYPE" speed="0.00" pos="5.10" lane="-645363777#2_0" slope="0.00"/>
        <vehicle id="4" x="4355.44" y="2719.13" angle="131.91" type="DEFAULT_VEHTYPE" speed="13.41" pos="52.27" lane="-24926458#3_0" slope="0.00"/>
        <vehicle id="7" x="3256.69" y="2590.92" angle="233.51" type="DEFAULT_VEHTYPE" speed="28.34" pos="1.82" lane="24667122#68_1" slope="0.00"/>
    </timestep>
    <timestep time="29.00">
        <vehicle id="0" x="3455.29" y="2711.39" angle="53.45" type="DEFAULT_VEHTYPE" speed="28.43" pos="4.80" lane=":7208831597_1_0" slope="0.00"/>
        <vehicle id="1" x="2774.90" y="2781.93" angle="228.27" type="DEFAULT_VEHTYPE" speed="14.48" pos="3.19" lane="890218773#1_1" slope="0.00"/>