<?xml version="1.0" encoding="UTF-8"?>

<!-- generated on 2025-05-20 02:26:57 by Eclipse SUMO GUI Version 1.22.0
<sumoConfiguration xmlns:xsi="http://www.w3.org/2001/XMLSchema-instance" xsi:noNamespaceSchemaLocation="http://sumo.dlr.de/xsd/sumoConfiguration.xsd">

    <input>
        <net-file value="C:/Users/tefah/OneDrive/Desktop/Digital Twin/SUMO FILES/sumotestmap.net.xml"/>
        <route-files value="C:/Users/tefah/OneDrive/Desktop/Digital Twin/SUMO FILES/routes.rou.xml"/>
    </input>

    <output>
        <emission-output value="C:/Users/tefah/OneDrive/Desktop/Digital Twin/SUMO FILES/emissions.xml"/>
        <full-output value="C:/Users/tefah/OneDrive/Desktop/Digital Twin/SUMO FILES/results.xml"/>
    </output>

    <time>
        <begin value="0"/>
        <end value="100"/>
        <step-length value="0.1"/>
    </time>

    <traci_server>
        <remote-port value="56469"/>
    </traci_server>

</sumoConfiguration>
-->

<emission-export xmlns:xsi="http://www.w3.org/2001/XMLSchema-instance" xsi:noNamespaceSchemaLocation="http://sumo.dlr.de/xsd/emission_file.xsd">
    <timestep time="0.00">
        <vehicle id="0" eclass="HBEFA3/PC_G_EU4" CO2="2624.72" CO="164.78" HC="0.81" NOx="1.20" PMx="0.07" fuel="837.22" electricity="0.00" noise="55.94" route="!0" type="DEFAULT_VEHTYPE" waiting="0.00" lane="4987249#2_0" pos="3.63" speed="0.00" angle="26.84" x="2960.40" y="2309.31"/>
    </timestep>
    <timestep time="0.10">
        <vehicle id="0" eclass="HBEFA3/PC_G_EU4" CO2="2767.11" CO="163.15" HC="0.81" NOx="1.26" PMx="0.07" fuel="882.64" electricity="0.00" noise="67.45" route="!0" type="DEFAULT_VEHTYPE" waiting="0.00" lane=":7872192240_0_0" pos="0.03" speed="0.26" angle="26.82" x="2960.41" y="2309.33"/>
    </timestep>
    <timestep time="0.20">
        <vehicle id="0" eclass="HBEFA3/PC_G_EU4" CO2="2876.76" CO="161.22" HC="0.80" NOx="1.31" PMx="0.07" fuel="917.60" electricity="0.00" noise="66.75" route="!0" type="DEFAULT_VEHTYPE" waiting="0.00" lane=":7872192240_0_0" pos="0.08" speed="0.50" angle="26.78" x="2960.43" y="2309.38"/>
    </timestep>
    <timestep time="0.30">
        <vehicle id="0" eclass="HBEFA3/PC_G_EU4" CO2="3028.77" CO="160.01" HC="0.80" NOx="1.37" PMx="0.07" fuel="966.09" electricity="0.00" noise="67.36" route="!0" type="DEFAULT_VEHTYPE" waiting="0.00" lane=":7872192240_0_0" pos="0.15" speed="0.75" angle="26.73" x="2960.47" y="2309.44"/>
    </timestep>
    <timestep time="0.40">
        <vehicle id="0" eclass="HBEFA3/PC_G_EU4" CO2="3185.73" CO="158.85" HC="0.80" NOx="1.44" PMx="0.08" fuel="1016.15" electricity="0.00" noise="67.72" route="!0" type="DEFAULT_VEHTYPE" waiting="0.00" lane=":7872192240_0_0" pos="0.25" speed="1.01" angle="26.66" x="2960.52" y="2309.53"/>
    </timestep>
    <timestep time="0.50">
        <vehicle id="0" eclass="HBEFA3/PC_G_EU4" CO2="3303.06" CO="157.06" HC="0.79" NOx="1.49" PMx="0.08" fuel="1053.57" electricity="0.00" noise="67.49" route="!0" type="DEFAULT_VEHTYPE" waiting="0.00" lane=":7872192240_0_0" pos="0.38" speed="1.26" angle="26.56" x="2960.57" y="2309.65"/>
    </timestep>
    <timestep time="0.60">
        <vehicle id="0" eclass="HBEFA3/PC_G_EU4" CO2="3441.50" CO="155.75" HC="0.79" NOx="1.55" PMx="0.08" fuel="1097.72" electricity="0.00" noise="67.60" route="!0" type="DEFAULT_VEHTYPE" waiting="0.00" lane=":7872192240_0_0" pos="0.53" speed="1.52" angle="26.45" x="2960.64" y="2309.78"/>
    </timestep>
    <timestep time="0.70">
        <vehicle id="0" eclass="HBEFA3/PC_G_EU4" CO2="3212.09" CO="148.12" HC="0.75" NOx="1.43" PMx="0.07" fuel="1024.55" electricity="0.00" noise="64.41" route="!0" type="DEFAULT_VEHTYPE" waiting="0.00" lane=":7872192240_0_0" pos="0.70" speed="1.69" angle="26.33" x="2960.72" y="2309.93"/>
    </timestep>
    <timestep time="0.80">
        <vehicle id="0" eclass="HBEFA3/PC_G_EU4" CO2="3617.41" CO="152.58" HC="0.78" NOx="1.62" PMx="0.08" fuel="1153.83" electricity="0.00" noise="67.27" route="!0" type="DEFAULT_VEHTYPE" waiting="0.00" lane=":7872192240_0_0" pos="0.89" speed="1.94" angle="26.19" x="2960.81" y="2310.10"/>
    </timestep>
    <timestep time="0.90">
        <vehicle id="0" eclass="HBEFA3/PC_G_EU4" CO2="3823.53" CO="152.78" HC="0.79" NOx="1.71" PMx="0.09" fuel="1219.57" electricity="0.00" noise="67.93" route="!0" type="DEFAULT_VEHTYPE" waiting="0.00" lane=":7872192240_0_0" pos="1.11" speed="2.19" angle="26.03" x="2960.91" y="2310.30"/>
    </timestep>
    <timestep time="1.00">
        <vehicle id="0" eclass="HBEFA3/PC_G_EU4" CO2="3659.78" CO="146.13" HC="0.75" NOx="1.63" PMx="0.08" fuel="1167.34" electricity="0.00" noise="66.03" route="!0" type="DEFAULT_VEHTYPE" waiting="0.00" lane=":7872192240_0_0" pos="1.35" speed="2.40" angle="25.86" x="2961.02" y="2310.51"/>
        <vehicle id="1" eclass="HBEFA3/PC_G_EU4" CO2="2624.72" CO="164.78" HC="0.81" NOx="1.20" PMx="0.07" fuel="837.22" electricity="0.00" noise="55.94" route="!1" type="DEFAULT_VEHTYPE" waiting="0.00" lane="-771326027#3_0" pos="5.10" speed="0.00" angle="130.66" x="2661.21" y="2983.73"/>
    </timestep>
    <timestep time="1.10">
        <vehicle id="0" eclass="HBEFA3/PC_G_EU4" CO2="3920.98" CO="147.90" HC="0.77" NOx="1.74" PMx="0.09" fuel="1250.65" electricity="0.00" noise="67.12" route="!0" type="DEFAULT_VEHTYPE" waiting="0.00" lane=":7872192240_0_0" pos="1.62" speed="2.63" angle="25.96" x="2961.14" y="2310.74"/>
        <vehicle id="1" eclass="HBEFA3/PC_G_EU4" CO2="2766.13" CO="163.14" HC="0.81" NOx="1.26" PMx="0.07" fuel="882.32" electricity="0.00" noise="67.42" route="!1" type="DEFAULT_VEHTYPE" waiting="0.00" lane="-771326027#3_0" pos="5.13" speed="0.26" angle="130.66" x="2661.23" y="2983.71"/>
    </timestep>
    <timestep time="1.20">
        <vehicle id="0" eclass="HBEFA3/PC_G_EU4" CO2="4026.67" CO="146.55" HC="0.76" NOx="1.79" PMx="0.09" fuel="1284.35" electricity="0.00" noise="67.14" route="!0" type="DEFAULT_VEHTYPE" waiting="0.00" lane=":7872192240_0_0" pos="1.90" speed="2.86" angle="26.09" x="2961.27" y="2311.00"/>
        <vehicle id="1" eclass="HBEFA3/PC_G_EU4" CO2="2875.09" CO="161.21" HC="0.80" NOx="1.31" PMx="0.07" fuel="917.07" electricity="0.00" noise="66.71" route="!1" type="DEFAULT_VEHTYPE" waiting="0.00" lane="-771326027#3_0" pos="5.18" speed="0.50" angle="130.66" x="2661.27" y="2983.68"/>
    </timestep>
    <timestep time="1.30">
        <vehicle id="0" eclass="HBEFA3/PC_G_EU4" CO2="4307.32" CO="148.56" HC="0.78" NOx="1.91" PMx="0.09" fuel="1373.87" electricity="0.00" noise="68.07" route="!0" type="DEFAULT_VEHTYPE" waiting="0.00" lane=":7872192240_0_0" pos="2.21" speed="3.11" angle="26.24" x="2961.41" y="2311.27"/>
        <vehicle id="1" eclass="HBEFA3/PC_G_EU4" CO2="3022.00" CO="159.93" HC="0.80" NOx="1.37" PMx="0.07" fuel="963.93" electricity="0.00" noise="67.25" route="!1" type="DEFAULT_VEHTYPE" waiting="0.00" lane="-771326027#3_0" pos="5.25" speed="0.75" angle="130.66" x="2661.32" y="2983.63"/>
    </timestep>
    <timestep time="1.40">
        <vehicle id="0" eclass="HBEFA3/PC_G_EU4" CO2="4290.65" CO="144.75" HC="0.76" NOx="1.90" PMx="0.09" fuel="1368.55" electricity="0.00" noise="67.42" route="!0" type="DEFAULT_VEHTYPE" waiting="0.00" lane=":7872192240_0_0" pos="2.55" speed="3.34" angle="26.39" x="2961.57" y="2311.57"/>
        <vehicle id="1" eclass="HBEFA3/PC_G_EU4" CO2="3076.09" CO="157.24" HC="0.79" NOx="1.39" PMx="0.07" fuel="981.18" electricity="0.00" noise="66.19" route="!1" type="DEFAULT_VEHTYPE" waiting="0.00" lane="-771326027#3_0" pos="5.35" speed="0.97" angle="130.66" x="2661.40" y="2983.57"/>
    </timestep>
    <timestep time="1.50">
        <vehicle id="0" eclass="HBEFA3/PC_G_EU4" CO2="3855.45" CO="133.22" HC="0.70" NOx="1.69" PMx="0.08" fuel="1229.74" electricity="0.00" noise="64.97" route="!0" type="DEFAULT_VEHTYPE" waiting="0.00" lane=":7872192240_0_0" pos="2.90" speed="3.51" angle="26.56" x="2961.73" y="2311.88"/>
        <vehicle id="1" eclass="HBEFA3/PC_G_EU4" CO2="3279.35" CO="157.22" HC="0.79" NOx="1.48" PMx="0.08" fuel="1046.01" electricity="0.00" noise="67.45" route="!1" type="DEFAULT_VEHTYPE" waiting="0.00" lane="-771326027#3_0" pos="5.47" speed="1.23" angle="130.66" x="2661.49" y="2983.49"/>
    </timestep>
    <timestep time="1.60">
        <vehicle id="0" eclass="HBEFA3/PC_G_EU4" CO2="4164.47" CO="136.68" HC="0.72" NOx="1.83" PMx="0.09" fuel="1328.30" electricity="0.00" noise="66.12" route="!0" type="DEFAULT_VEHTYPE" waiting="0.00" lane=":7872192240_0_0" pos="3.27" speed="3.71" angle="26.73" x="2961.90" y="2312.21"/>
        <vehicle id="1" eclass="HBEFA3/PC_G_EU4" CO2="3353.37" CO="154.83" HC="0.78" NOx="1.51" PMx="0.08" fuel="1069.61" electricity="0.00" noise="66.90" route="!1" type="DEFAULT_VEHTYPE" waiting="0.00" lane="-771326027#3_0" pos="5.62" speed="1.46" angle="130.66" x="2661.60" y="2983.39"/>
    </timestep>
    <timestep time="1.70">
        <vehicle id="0" eclass="HBEFA3/PC_G_EU4" CO2="4470.97" CO="139.82" HC="0.74" NOx="1.97" PMx="0.09" fuel="1426.06" electricity="0.00" noise="67.10" route="!0" type="DEFAULT_VEHTYPE" waiting="0.00" lane=":7872192240_0_0" pos="3.66" speed="3.93" angle="26.91" x="2962.08" y="2312.56"/>
        <vehicle id="1" eclass="HBEFA3/PC_G_EU4" CO2="3228.76" CO="149.23" HC="0.76" NOx="1.44" PMx="0.07" fuel="1029.87" electricity="0.00" noise="64.73" route="!1" type="DEFAULT_VEHTYPE" waiting="0.00" lane="-771326027#3_0" pos="5.78" speed="1.65" angle="130.66" x="2661.73" y="2983.28"/>
    </timestep>
    <timestep time="1.80">
        <vehicle id="0" eclass="HBEFA3/PC_G_EU4" CO2="4559.84" CO="138.56" HC="0.74" NOx="2.00" PMx="0.10" fuel="1454.40" electricity="0.00" noise="67.11" route="!0" type="DEFAULT_VEHTYPE" waiting="0.00" lane=":7872192240_0_0" pos="4.07" speed="4.14" angle="27.10" x="2962.27" y="2312.93"/>
        <vehicle id="1" eclass="HBEFA3/PC_G_EU4" CO2="3356.63" CO="148.67" HC="0.76" NOx="1.50" PMx="0.08" fuel="1070.65" electricity="0.00" noise="65.29" route="!1" type="DEFAULT_VEHTYPE" waiting="0.00" lane="-771326027#3_0" pos="5.97" speed="1.84" angle="130.66" x="2661.87" y="2983.16"/>
    </timestep>
    <timestep time="1.90">
        <vehicle id="0" eclass="HBEFA3/PC_G_EU4" CO2="4772.80" CO="139.76" HC="0.75" NOx="2.10" PMx="0.10" fuel="1522.33" electricity="0.00" noise="67.59" route="!0" type="DEFAULT_VEHTYPE" waiting="0.00" lane=":7872192240_0_0" pos="4.51" speed="4.37" angle="27.30" x="2962.47" y="2313.31"/>
        <vehicle id="1" eclass="HBEFA3/PC_G_EU4" CO2="3627.97" CO="150.58" HC="0.77" NOx="1.62" PMx="0.08" fuel="1157.20" electricity="0.00" noise="66.82" route="!1" type="DEFAULT_VEHTYPE" waiting="0.00" lane="-771326027#3_0" pos="6.17" speed="2.07" angle="130.66" x="2662.02" y="2983.03"/>
    </timestep>
    <timestep time="2.00">
        <vehicle id="0" eclass="HBEFA3/PC_G_EU4" CO2="4742.56" CO="136.17" HC="0.73" NOx="2.08" PMx="0.10" fuel="1512.68" electricity="0.00" noise="67.16" route="!0" type="DEFAULT_VEHTYPE" waiting="0.00" lane=":7872192240_0_0" pos="4.97" speed="4.58" angle="27.34" x="2962.68" y="2313.72"/>
        <vehicle id="1" eclass="HBEFA3/PC_G_EU4" CO2="3812.26" CO="150.58" HC="0.78" NOx="1.70" PMx="0.08" fuel="1215.97" electricity="0.00" noise="67.38" route="!1" type="DEFAULT_VEHTYPE" waiting="0.00" lane="-771326027#3_0" pos="6.40" speed="2.31" angle="130.66" x="2662.20" y="2982.88"/>
        <vehicle id="2" eclass="HBEFA3/PC_G_EU4" CO2="2624.72" CO="164.78" HC="0.81" NOx="1.20" PMx="0.07" fuel="837.22" electricity="0.00" noise="55.94" route="!2" type="DEFAULT_VEHTYPE" waiting="0.00" lane="645419926#6_0" pos="0.20" speed="0.00" angle="312.10" x="3869.29" y="2875.65"/>
    </timestep>
    <timestep time="2.10">
        <vehicle id="0" eclass="HBEFA3/PC_G_EU4" CO2="5340.01" CO="145.02" HC="0.79" NOx="2.35" PMx="0.11" fuel="1703.23" electricity="0.00" noise="68.90" route="!0" type="DEFAULT_VEHTYPE" waiting="0.00" lane="4987249#3_0" pos="0.46" speed="4.83" angle="27.33" x="2962.90" y="2314.15"/>
        <vehicle id="1" eclass="HBEFA3/PC_G_EU4" CO2="3366.88" CO="138.94" HC="0.71" NOx="1.49" PMx="0.07" fuel="1073.92" electricity="0.00" noise="63.84" route="!1" type="DEFAULT_VEHTYPE" waiting="0.00" lane="-771326027#3_0" pos="6.65" speed="2.47" angle="130.66" x="2662.39" y="2982.72"/>
        <vehicle id="2" eclass="HBEFA3/PC_G_EU4" CO2="2757.51" CO="163.09" HC="0.81" NOx="1.26" PMx="0.07" fuel="879.57" electricity="0.00" noise="67.10" route="!2" type="DEFAULT_VEHTYPE" waiting="0.00" lane=":7201339016_0_0" pos="0.03" speed="0.25" angle="312.10" x="3869.27" y="2875.67"/>
    </timestep>
    <timestep time="2.20">
        <vehicle id="0" eclass="HBEFA3/PC_G_EU4" CO2="5490.43" CO="144.72" HC="0.79" NOx="2.42" PMx="0.12" fuel="1751.21" electricity="0.00" noise="69.01" route="!0" type="DEFAULT_VEHTYPE" waiting="0.00" lane="4987249#3_0" pos="0.97" speed="5.08" angle="27.33" x="2963.13" y="2314.59"/>
        <vehicle id="1" eclass="HBEFA3/PC_G_EU4" CO2="3879.32" CO="146.07" HC="0.76" NOx="1.72" PMx="0.08" fuel="1237.36" electricity="0.00" noise="66.69" route="!1" type="DEFAULT_VEHTYPE" waiting="0.00" lane="-771326027#3_0" pos="6.92" speed="2.69" angle="130.66" x="2662.59" y="2982.54"/>
        <vehicle id="2" eclass="HBEFA3/PC_G_EU4" CO2="2882.24" CO="161.38" HC="0.80" NOx="1.31" PMx="0.07" fuel="919.36" electricity="0.00" noise="66.98" route="!2" type="DEFAULT_VEHTYPE" waiting="0.00" lane=":7201339016_0_0" pos="0.07" speed="0.50" angle="312.10" x="3869.23" y="2875.70"/>
    </timestep>
    <timestep time="2.30">
        <vehicle id="0" eclass="HBEFA3/PC_G_EU4" CO2="5129.18" CO="134.42" HC="0.73" NOx="2.24" PMx="0.11" fuel="1635.99" electricity="0.00" noise="67.55" route="!0" type="DEFAULT_VEHTYPE" waiting="0.00" lane="4987249#3_0" pos="1.50" speed="5.30" angle="27.32" x="2963.37" y="2315.06"/>
        <vehicle id="1" eclass="HBEFA3/PC_G_EU4" CO2="3346.89" CO="132.97" HC="0.68" NOx="1.47" PMx="0.07" fuel="1067.54" electricity="0.00" noise="63.18" route="!1" type="DEFAULT_VEHTYPE" waiting="0.00" lane="-771326027#3_0" pos="7.20" speed="2.83" angle="130.66" x="2662.80" y="2982.36"/>
        <vehicle id="2" eclass="HBEFA3/PC_G_EU4" CO2="2981.48" CO="159.40" HC="0.80" NOx="1.35" PMx="0.07" fuel="951.01" electricity="0.00" noise="66.53" route="!2" type="DEFAULT_VEHTYPE" waiting="0.00" lane=":7201339016_0_0" pos="0.15" speed="0.73" angle="312.10" x="3869.18" y="2875.75"/>
    </timestep>
    <timestep time="2.40">
        <vehicle id="0" eclass="HBEFA3/PC_G_EU4" CO2="4102.31" CO="111.46" HC="0.60" NOx="1.75" PMx="0.08" fuel="1308.47" electricity="0.00" noise="64.28" route="!0" type="DEFAULT_VEHTYPE" waiting="0.00" lane="4987249#3_0" pos="2.04" speed="5.44" angle="27.42" x="2963.62" y="2315.53"/>
        <vehicle id="1" eclass="HBEFA3/PC_G_EU4" CO2="3575.06" CO="135.19" HC="0.70" NOx="1.57" PMx="0.08" fuel="1140.32" electricity="0.00" noise="64.27" route="!1" type="DEFAULT_VEHTYPE" waiting="0.00" lane="-771326027#3_0" pos="7.50" speed="2.99" angle="130.66" x="2663.03" y="2982.16"/>
        <vehicle id="2" eclass="HBEFA3/PC_G_EU4" CO2="3105.83" CO="157.94" HC="0.79" NOx="1.40" PMx="0.07" fuel="990.67" electricity="0.00" noise="66.74" route="!2" type="DEFAULT_VEHTYPE" waiting="0.00" lane=":7201339016_0_0" pos="0.25" speed="0.97" angle="312.10" x="3869.11" y="2875.81"/>
    </timestep>
    <timestep time="2.50">
        <vehicle id="0" eclass="HBEFA3/PC_G_EU4" CO2="5666.60" CO="140.56" HC="0.77" NOx="2.49" PMx="0.12" fuel="1807.39" electricity="0.00" noise="68.72" route="!0" type="DEFAULT_VEHTYPE" waiting="0.00" lane="4987249#3_0" pos="2.61" speed="5.67" angle="27.64" x="2963.90" y="2316.02"/>
        <vehicle id="1" eclass="HBEFA3/PC_G_EU4" CO2="3523.00" CO="131.85" HC="0.68" NOx="1.54" PMx="0.07" fuel="1123.71" electricity="0.00" noise="63.78" route="!1" type="DEFAULT_VEHTYPE" waiting="0.00" lane="-771326027#3_0" pos="7.82" speed="3.14" angle="130.66" x="2663.27" y="2981.96"/>
        <vehicle id="2" eclass="HBEFA3/PC_G_EU4" CO2="3282.34" CO="157.34" HC="0.79" NOx="1.48" PMx="0.08" fuel="1046.96" electricity="0.00" noise="67.51" route="!2" type="DEFAULT_VEHTYPE" waiting="0.00" lane=":7201339016_0_0" pos="0.37" speed="1.22" angle="312.10" x="3869.02" y="2875.90"/>
    </timestep>
    <timestep time="2.60">
        <vehicle id="0" eclass="HBEFA3/PC_G_EU4" CO2="4483.08" CO="114.20" HC="0.63" NOx="1.92" PMx="0.09" fuel="1429.91" electricity="0.00" noise="65.18" route="!0" type="DEFAULT_VEHTYPE" waiting="0.00" lane="4987249#3_0" pos="3.19" speed="5.83" angle="27.87" x="2964.18" y="2316.52"/>
        <vehicle id="1" eclass="HBEFA3/PC_G_EU4" CO2="4186.69" CO="142.25" HC="0.75" NOx="1.85" PMx="0.09" fuel="1335.39" electricity="0.00" noise="66.85" route="!1" type="DEFAULT_VEHTYPE" waiting="0.00" lane="-771326027#3_0" pos="8.15" speed="3.36" angle="130.66" x="2663.52" y="2981.74"/>
        <vehicle id="2" eclass="HBEFA3/PC_G_EU4" CO2="3354.36" CO="154.89" HC="0.78" NOx="1.51" PMx="0.08" fuel="1069.93" electricity="0.00" noise="66.93" route="!2" type="DEFAULT_VEHTYPE" waiting="0.00" lane=":7201339016_0_0" pos="0.51" speed="1.46" angle="312.10" x="3868.91" y="2875.99"/>
    </timestep>
    <timestep time="2.70">
        <vehicle id="0" eclass="HBEFA3/PC_G_EU4" CO2="4942.71" CO="121.38" HC="0.67" NOx="2.14" PMx="0.10" fuel="1576.51" electricity="0.00" noise="66.34" route="!0" type="DEFAULT_VEHTYPE" waiting="0.00" lane="4987249#3_0" pos="3.80" speed="6.01" angle="28.11" x="2964.47" y="2317.04"/>
        <vehicle id="1" eclass="HBEFA3/PC_G_EU4" CO2="4704.86" CO="149.09" HC="0.79" NOx="2.09" PMx="0.10" fuel="1500.66" electricity="0.00" noise="68.77" route="!1" type="DEFAULT_VEHTYPE" waiting="0.00" lane="-771326027#3_0" pos="8.52" speed="3.62" angle="130.66" x="2663.80" y="2981.50"/>
        <vehicle id="2" eclass="HBEFA3/PC_G_EU4" CO2="3356.00" CO="151.45" HC="0.77" NOx="1.50" PMx="0.08" fuel="1070.45" electricity="0.00" noise="65.93" route="!2" type="DEFAULT_VEHTYPE" waiting="0.00" lane=":7201339016_0_0" pos="0.68" speed="1.67" angle="312.10" x="3868.78" y="2876.10"/>
    </timestep>
    <timestep time="2.80">
        <vehicle id="0" eclass="HBEFA3/PC_G_EU4" CO2="5355.67" CO="127.37" HC="0.71" NOx="2.32" PMx="0.11" fuel="1708.22" electricity="0.00" noise="67.30" route="!0" type="DEFAULT_VEHTYPE" waiting="0.00" lane="4987249#3_0" pos="4.42" speed="6.21" angle="28.35" x="2964.77" y="2317.58"/>
        <vehicle id="1" eclass="HBEFA3/PC_G_EU4" CO2="3673.20" CO="125.73" HC="0.66" NOx="1.60" PMx="0.07" fuel="1171.61" electricity="0.00" noise="63.85" route="!1" type="DEFAULT_VEHTYPE" waiting="0.00" lane="-771326027#3_0" pos="8.89" speed="3.77" angle="130.66" x="2664.09" y="2981.26"/>
        <vehicle id="2" eclass="HBEFA3/PC_G_EU4" CO2="3575.26" CO="152.16" HC="0.78" NOx="1.60" PMx="0.08" fuel="1140.38" electricity="0.00" noise="67.02" route="!2" type="DEFAULT_VEHTYPE" waiting="0.00" lane=":7201339016_0_0" pos="0.87" speed="1.91" angle="312.10" x="3868.64" y="2876.23"/>
    </timestep>
    <timestep time="2.90">
        <vehicle id="0" eclass="HBEFA3/PC_G_EU4" CO2="5258.12" CO="123.02" HC="0.68" NOx="2.27" PMx="0.11" fuel="1677.11" electricity="0.00" noise="66.90" route="!0" type="DEFAULT_VEHTYPE" waiting="0.00" lane="4987249#3_0" pos="5.06" speed="6.40" angle="28.60" x="2965.08" y="2318.13"/>
        <vehicle id="1" eclass="HBEFA3/PC_G_EU4" CO2="4277.92" CO="135.32" HC="0.72" NOx="1.88" PMx="0.09" fuel="1364.48" electricity="0.00" noise="66.22" route="!1" type="DEFAULT_VEHTYPE" waiting="0.00" lane="-771326027#3_0" pos="9.29" speed="3.96" angle="130.66" x="2664.39" y="2981.00"/>
        <vehicle id="2" eclass="HBEFA3/PC_G_EU4" CO2="3487.90" CO="147.15" HC="0.75" NOx="1.55" PMx="0.08" fuel="1112.52" electricity="0.00" noise="65.57" route="!2" type="DEFAULT_VEHTYPE" waiting="0.00" lane=":7201339016_0_0" pos="1.08" speed="2.11" angle="312.10" x="3868.49" y="2876.37"/>
    </timestep>
    <timestep time="3.00">
        <vehicle id="0 30" eclass="HBEFA3/PC_G_EU4" CO2="2624.72" CO="164.78" HC="0.81" NOx="1.20" PMx="0.07" fuel="837.22" electricity="0.00" noise="55.94" route="0 30" type="DEFAULT_VEHTYPE" waiting="0.00" lane="4987249#3_0" pos="5.06" speed="0.00" angle="28.60" x="2965.08" y="2318.13"/>
        <vehicle id="1 30" eclass="HBEFA3/PC_G_EU4" CO2="2624.72" CO="164.78" HC="0.81" NOx="1.20" PMx="0.07" fuel="837.22" electricity="0.00" noise="55.94" route="1 30" type="DEFAULT_VEHTYPE" waiting="0.00" lane="-771326027#3_0" pos="9.29" speed="0.00" angle="130.66" x="2664.39" y="2981.00"/>
        <vehicle id="2 30" eclass="HBEFA3/PC_G_EU4" CO2="2624.72" CO="164.78" HC="0.81" NOx="1.20" PMx="0.07" fuel="837.22" electricity="0.00" noise="55.94" route="2 30" type="DEFAULT_VEHTYPE" waiting="0.00" lane=":7201339016_0_0" pos="1.08" speed="0.00" angle="312.10" x="3868.49" y="2876.37"/>
        <vehicle id="3" eclass="HBEFA3/PC_G_EU4" CO2="2624.72" CO="164.78" HC="0.81" NOx="1.20" PMx="0.07" fuel="837.22" electricity="0.00" noise="55.94" route="!3" type="DEFAULT_VEHTYPE" waiting="0.00" lane="701529973#17_0" pos="5.10" speed="0.00" angle="48.19" x="3405.84" y="3316.21"/>
    </timestep>
    <timestep time="3.10">
        <vehicle id="0 30" eclass="HBEFA3/PC_G_EU4" CO2="2763.27" CO="163.13" HC="0.81" NOx="1.26" PMx="0.07" fuel="881.41" electricity="0.00" noise="67.31" route="0 30" type="DEFAULT_VEHTYPE" waiting="0.00" lane="4987249#3_0" pos="5.08" speed="0.26" angle="28.61" x="2965.09" y="2318.15"/>
        <vehicle id="1 30" eclass="HBEFA3/PC_G_EU4" CO2="2759.46" CO="163.10" HC="0.81" NOx="1.26" PMx="0.07" fuel="880.19" electricity="0.00" noise="67.17" route="1 30" type="DEFAULT_VEHTYPE" waiting="0.00" lane="-771326027#3_0" pos="9.31" speed="0.25" angle="130.66" x="2664.40" y="2980.98"/>
        <vehicle id="2 30" eclass="HBEFA3/PC_G_EU4" CO2="2766.81" CO="163.15" HC="0.81" NOx="1.26" PMx="0.07" fuel="882.54" electricity="0.00" noise="67.44" route="2 30" type="DEFAULT_VEHTYPE" waiting="0.00" lane=":7201339016_0_0" pos="1.11" speed="0.26" angle="312.10" x="3868.47" y="2876.39"/>
        <vehicle id="3" eclass="HBEFA3/PC_G_EU4" CO2="2765.45" CO="163.14" HC="0.81" NOx="1.26" PMx="0.07" fuel="882.11" electricity="0.00" noise="67.39" route="!3" type="DEFAULT_VEHTYPE" waiting="0.00" lane="701529973#17_0" pos="5.13" speed="0.26" angle="48.19" x="3405.86" y="3316.23"/>
    </timestep>
    <timestep time="3.20">
        <vehicle id="0 30" eclass="HBEFA3/PC_G_EU4" CO2="2907.02" CO="161.60" HC="0.80" NOx="1.32" PMx="0.07" fuel="927.26" electricity="0.00" noise="67.51" route="0 30" type="DEFAULT_VEHTYPE" waiting="0.00" lane="4987249#3_0" pos="5.13" speed="0.51" angle="28.64" x="2965.12" y="2318.19"/>
        <vehicle id="1 30" eclass="HBEFA3/PC_G_EU4" CO2="2867.47" CO="161.20" HC="0.80" NOx="1.31" PMx="0.07" fuel="914.64" electricity="0.00" noise="66.59" route="1 30" type="DEFAULT_VEHTYPE" waiting="0.00" lane="-771326027#3_0" pos="9.36" speed="0.49" angle="130.66" x="2664.44" y="2980.95"/>
        <vehicle id="2 30" eclass="HBEFA3/PC_G_EU4" CO2="2879.20" CO="161.25" HC="0.80" NOx="1.31" PMx="0.07" fuel="918.38" electricity="0.00" noise="66.81" route="2 30" type="DEFAULT_VEHTYPE" waiting="0.00" lane=":7201339016_0_0" pos="1.16" speed="0.50" angle="312.10" x="3868.43" y="2876.42"/>
        <vehicle id="3" eclass="HBEFA3/PC_G_EU4" CO2="2868.67" CO="161.15" HC="0.80" NOx="1.31" PMx="0.07" fuel="915.03" electricity="0.00" noise="66.56" route="!3" type="DEFAULT_VEHTYPE" waiting="0.00" lane="701529973#17_0" pos="5.18" speed="0.50" angle="48.19" x="3405.90" y="3316.26"/>
    </timestep>
    <timestep time="3.30">
        <vehicle id="0 30" eclass="HBEFA3/PC_G_EU4" CO2="3047.35" CO="160.08" HC="0.80" NOx="1.38" PMx="0.07" fuel="972.01" electricity="0.00" noise="67.56" route="0 30" type="DEFAULT_VEHTYPE" waiting="0.00" lane="4987249#3_0" pos="5.21" speed="0.77" angle="28.67" x="2965.16" y="2318.26"/>
        <vehicle id="1 30" eclass="HBEFA3/PC_G_EU4" CO2="3029.66" CO="160.15" HC="0.80" NOx="1.37" PMx="0.07" fuel="966.37" electricity="0.00" noise="67.47" route="1 30" type="DEFAULT_VEHTYPE" waiting="0.00" lane="-771326027#3_0" pos="9.44" speed="0.75" angle="130.66" x="2664.50" y="2980.90"/>
        <vehicle id="2 30" eclass="HBEFA3/PC_G_EU4" CO2="2985.75" CO="159.40" HC="0.80" NOx="1.35" PMx="0.07" fuel="952.37" electricity="0.00" noise="66.57" route="2 30" type="DEFAULT_VEHTYPE" waiting="0.00" lane=":7201339016_0_0" pos="1.23" speed="0.74" angle="312.10" x="3868.37" y="2876.47"/>
        <vehicle id="3" eclass="HBEFA3/PC_G_EU4" CO2="3030.72" CO="160.11" HC="0.80" NOx="1.38" PMx="0.07" fuel="966.71" electricity="0.00" noise="67.44" route="!3" type="DEFAULT_VEHTYPE" waiting="0.00" lane="701529973#17_0" pos="5.25" speed="0.75" angle="48.19" x="3405.95" y="3316.31"/>
    </timestep>
    <timestep time="3.40">
        <vehicle id="0 30" eclass="HBEFA3/PC_G_EU4" CO2="3082.98" CO="157.03" HC="0.79" NOx="1.39" PMx="0.07" fuel="983.38" electricity="0.00" noise="66.14" route="0 30" type="DEFAULT_VEHTYPE" waiting="0.00" lane="4987249#3_0" pos="5.31" speed="1.00" angle="28.71" x="2965.20" y="2318.35"/>
        <vehicle id="1 30" eclass="HBEFA3/PC_G_EU4" CO2="3055.12" CO="156.98" HC="0.79" NOx="1.38" PMx="0.07" fuel="974.49" electricity="0.00" noise="65.90" route="1 30" type="DEFAULT_VEHTYPE" waiting="0.00" lane="-771326027#3_0" pos="9.53" speed="0.96" angle="130.66" x="2664.57" y="2980.84"/>
        <vehicle id="2 30" eclass="HBEFA3/PC_G_EU4" CO2="3118.45" CO="158.06" HC="0.79" NOx="1.41" PMx="0.07" fuel="994.69" electricity="0.00" noise="66.89" route="2 30" type="DEFAULT_VEHTYPE" waiting="0.00" lane=":7201339016_0_0" pos="1.33" speed="0.98" angle="312.10" x="3868.30" y="2876.54"/>
        <vehicle id="3" eclass="HBEFA3/PC_G_EU4" CO2="3128.23" CO="158.02" HC="0.79" NOx="1.41" PMx="0.07" fuel="997.81" electricity="0.00" noise="66.94" route="!3" type="DEFAULT_VEHTYPE" waiting="0.00" lane="701529973#17_0" pos="5.35" speed="0.99" angle="48.19" x="3406.03" y="3316.38"/>
    </timestep>
    <timestep time="3.50">
        <vehicle id="0 30" eclass="HBEFA3/PC_G_EU4" CO2="3216.49" CO="155.91" HC="0.79" NOx="1.45" PMx="0.07" fuel="1025.96" electricity="0.00" noise="66.57" route="0 30" type="DEFAULT_VEHTYPE" waiting="0.00" lane="4987249#3_0" pos="5.43" speed="1.23" angle="28.76" x="2965.26" y="2318.45"/>
        <vehicle id="1 30" eclass="HBEFA3/PC_G_EU4" CO2="3129.84" CO="154.97" HC="0.78" NOx="1.41" PMx="0.07" fuel="998.32" electricity="0.00" noise="65.67" route="1 30" type="DEFAULT_VEHTYPE" waiting="0.00" lane="-771326027#3_0" pos="9.65" speed="1.18" angle="130.66" x="2664.66" y="2980.76"/>
        <vehicle id="2 30" eclass="HBEFA3/PC_G_EU4" CO2="3154.44" CO="155.17" HC="0.78" NOx="1.42" PMx="0.07" fuel="1006.17" electricity="0.00" noise="65.91" route="2 30" type="DEFAULT_VEHTYPE" waiting="0.00" lane=":7201339016_0_0" pos="1.45" speed="1.19" angle="312.10" x="3868.21" y="2876.62"/>
        <vehicle id="3" eclass="HBEFA3/PC_G_EU4" CO2="3177.82" CO="155.34" HC="0.78" NOx="1.43" PMx="0.07" fuel="1013.63" electricity="0.00" noise="66.13" route="!3" type="DEFAULT_VEHTYPE" waiting="0.00" lane="701529973#17_0" pos="5.47" speed="1.21" angle="48.19" x="3406.12" y="3316.46"/>
    </timestep>
    <timestep time="3.60">
        <vehicle id="0 30" eclass="HBEFA3/PC_G_EU4" CO2="3147.56" CO="151.38" HC="0.76" NOx="1.41" PMx="0.07" fuel="1003.97" electricity="0.00" noise="64.72" route="0 30" type="DEFAULT_VEHTYPE" waiting="0.00" lane="4987249#3_0" pos="5.57" speed="1.41" angle="28.81" x="2965.33" y="2318.57"/>
        <vehicle id="1 30" eclass="HBEFA3/PC_G_EU4" CO2="3302.04" CO="154.69" HC="0.78" NOx="1.49" PMx="0.08" fuel="1053.24" electricity="0.00" noise="66.61" route="1 30" type="DEFAULT_VEHTYPE" waiting="0.00" lane="-771326027#3_0" pos="9.79" speed="1.41" angle="130.66" x="2664.77" y="2980.67"/>
        <vehicle id="2 30" eclass="HBEFA3/PC_G_EU4" CO2="3227.79" CO="153.19" HC="0.77" NOx="1.45" PMx="0.07" fuel="1029.56" electricity="0.00" noise="65.73" route="2 30" type="DEFAULT_VEHTYPE" waiting="0.00" lane=":7201339016_0_0" pos="1.59" speed="1.40" angle="312.10" x="3868.11" y="2876.71"/>
        <vehicle id="3" eclass="HBEFA3/PC_G_EU4" CO2="3438.09" CO="156.43" HC="0.79" NOx="1.55" PMx="0.08" fuel="1096.64" electricity="0.00" noise="67.83" route="!3" type="DEFAULT_VEHTYPE" waiting="0.00" lane="701529973#17_0" pos="5.62" speed="1.47" angle="48.19" x="3406.23" y="3316.56"/>
    </timestep>
    <timestep time="3.70">
        <vehicle id="0 30" eclass="HBEFA3/PC_G_EU4" CO2="3361.94" CO="152.22" HC="0.77" NOx="1.51" PMx="0.08" fuel="1072.35" electricity="0.00" noise="66.16" route="0 30" type="DEFAULT_VEHTYPE" waiting="0.00" lane="4987249#3_0" pos="5.74" speed="1.63" angle="28.88" x="2965.41" y="2318.72"/>
        <vehicle id="1 30" eclass="HBEFA3/PC_G_EU4" CO2="3399.03" CO="152.97" HC="0.78" NOx="1.52" PMx="0.08" fuel="1084.18" electricity="0.00" noise="66.54" route="1 30" type="DEFAULT_VEHTYPE" waiting="0.00" lane="-771326027#3_0" pos="9.96" speed="1.63" angle="130.66" x="2664.89" y="2980.56"/>
        <vehicle id="2 30" eclass="HBEFA3/PC_G_EU4" CO2="3416.26" CO="153.29" HC="0.78" NOx="1.53" PMx="0.08" fuel="1089.67" electricity="0.00" noise="66.71" route="2 30" type="DEFAULT_VEHTYPE" waiting="0.00" lane=":7201339016_0_0" pos="1.75" speed="1.64" angle="312.10" x="3867.99" y="2876.82"/>
        <vehicle id="3" eclass="HBEFA3/PC_G_EU4" CO2="3368.21" CO="151.49" HC="0.77" NOx="1.51" PMx="0.08" fuel="1074.35" electricity="0.00" noise="66.00" route="!3" type="DEFAULT_VEHTYPE" waiting="0.00" lane="701529973#17_0" pos="5.79" speed="1.68" angle="48.19" x="3406.35" y="3316.67"/>
    </timestep>
    <timestep time="3.80">
        <vehicle id="0 30" eclass="HBEFA3/PC_G_EU4" CO2="3456.08" CO="150.64" HC="0.77" NOx="1.55" PMx="0.08" fuel="1102.37" electricity="0.00" noise="66.18" route="0 30" type="DEFAULT_VEHTYPE" waiting="0.00" lane="4987249#3_0" pos="5.92" speed="1.85" angle="28.95" x="2965.50" y="2318.87"/>