<?xml version="1.0" encoding="UTF-8"?>

<!-- generated on 2025-05-27 18:45:28 by Eclipse SUMO GUI Version 1.22.0
<sumoConfiguration xmlns:xsi="http://www.w3.org/2001/XMLSchema-instance" xsi:noNamespaceSchemaLocation="http://sumo.dlr.de/xsd/sumoConfiguration.xsd">

    <input>
        <net-file value="C:\Users\tefah\OneDrive\Desktop\Digital Twin\SUMO FILES\sumotestmap.net.xml"/>
        <route-files value="C:\Users\tefah\OneDrive\Desktop\Digital Twin\SUMO FILES\routes.rou.xml"/>
    </input>

    <output>
        <emission-output value="C:\Users\tefah\OneDrive\Desktop\Digital Twin\SUMO FILES\emissions.xml"/>
        <full-output value="C:\Users\tefah\OneDrive\Desktop\Digital Twin\SUMO FILES\results.xml"/>
    </output>

    <time>
        <begin value="0"/>
        <end value="100"/>
    </time>

</sumoConfiguration>
-->

<emission-export xmlns:xsi="http://www.w3.org/2001/XMLSchema-instance" xsi:noNamespaceSchemaLocation="http://sumo.dlr.de/xsd/emission_file.xsd">
    <timestep time="0.00">
        <vehicle id="0" eclass="HBEFA3/PC_G_EU4" CO2="2624.72" CO="164.78" HC="0.81" NOx="1.20" PMx="0.07" fuel="837.22" electricity="0.00" noise="55.94" route="!0" type="DEFAULT_VEHTYPE" waiting="0.00" lane="4987249#2_0" pos="3.63" speed="0.00" angle="26.84" x="2960.40" y="2309.31"/>
    </timestep>
    <timestep time="1.00">
        <vehicle id="0" eclass="HBEFA3/PC_G_EU4" CO2="4039.82" CO="151.56" HC="0.79" NOx="1.80" PMx="0.09" fuel="1288.55" electricity="0.00" noise="68.14" route="!0" type="DEFAULT_VEHTYPE" waiting="0.00" lane=":7872192240_0_0" pos="2.55" speed="2.55" angle="26.39" x="2961.57" y="2311.57"/>
        <vehicle id="1" eclass="HBEFA3/PC_G_EU4" CO2="2624.72" CO="164.78" HC="0.81" NOx="1.20" PMx="0.07" fuel="837.22" electricity="0.00" noise="55.94" route="!1" type="DEFAULT_VEHTYPE" waiting="0.00" lane="-771326027#3_0" pos="5.10" speed="0.00" angle="130.66" x="2661.21" y="2983.73"/>
    </timestep>
    <timestep time="2.00">
        <vehicle id="0" eclass="HBEFA3/PC_G_EU4" CO2="4047.15" CO="126.98" HC="0.67" NOx="1.76" PMx="0.08" fuel="1290.88" electricity="0.00" noise="64.97" route="!0" type="DEFAULT_VEHTYPE" waiting="0.00" lane="4987249#3_0" pos="1.78" speed="4.22" angle="27.32" x="2963.49" y="2315.30"/>
        <vehicle id="1" eclass="HBEFA3/PC_G_EU4" CO2="3819.02" CO="149.91" HC="0.77" NOx="1.70" PMx="0.08" fuel="1218.13" electricity="0.00" noise="67.25" route="!1" type="DEFAULT_VEHTYPE" waiting="0.00" lane="-771326027#3_0" pos="7.46" speed="2.36" angle="130.66" x="2663.00" y="2982.19"/>
        <vehicle id="2" eclass="HBEFA3/PC_G_EU4" CO2="2624.72" CO="164.78" HC="0.81" NOx="1.20" PMx="0.07" fuel="837.22" electricity="0.00" noise="55.94" route="!2" type="DEFAULT_VEHTYPE" waiting="0.00" lane="645419926#6_0" pos="0.20" speed="0.00" angle="312.10" x="3869.29" y="2875.65"/>
    </timestep>
    <timestep time="3.00">
        <vehicle id="0" eclass="HBEFA3/PC_G_EU4" CO2="6501.26" CO="144.64" HC="0.81" NOx="2.85" PMx="0.14" fuel="2073.60" electricity="0.00" noise="69.73" route="!0" type="DEFAULT_VEHTYPE" waiting="0.00" lane="4987249#3_0" pos="8.50" speed="6.72" angle="29.30" x="2966.75" y="2321.10"/>
        <vehicle id="1" eclass="HBEFA3/PC_G_EU4" CO2="5497.55" CO="146.76" HC="0.80" NOx="2.43" PMx="0.12" fuel="1753.48" electricity="0.00" noise="69.26" route="!1" type="DEFAULT_VEHTYPE" waiting="0.00" lane="-771326027#3_0" pos="12.41" speed="4.94" angle="130.66" x="2666.75" y="2978.97"/>
        <vehicle id="2" eclass="HBEFA3/PC_G_EU4" CO2="3223.28" CO="147.38" HC="0.75" NOx="1.44" PMx="0.07" fuel="1028.12" electricity="0.00" noise="64.33" route="!2" type="DEFAULT_VEHTYPE" waiting="0.00" lane=":7201339016_0_0" pos="1.75" speed="1.75" angle="312.10" x="3867.99" y="2876.82"/>
        <vehicle id="3" eclass="HBEFA3/PC_G_EU4" CO2="2624.72" CO="164.78" HC="0.81" NOx="1.20" PMx="0.07" fuel="837.22" electricity="0.00" noise="55.94" route="!3" type="DEFAULT_VEHTYPE" waiting="0.00" lane="701529973#17_0" pos="5.10" speed="0.00" angle="48.19" x="3405.84" y="3316.21"/>
    </timestep>
    <timestep time="4.00">
        <vehicle id="0" eclass="HBEFA3/PC_G_EU4" CO2="7068.58" CO="132.31" HC="0.77" NOx="3.06" PMx="0.14" fuel="2254.54" electricity="0.00" noise="69.20" route="!0" type="DEFAULT_VEHTYPE" waiting="0.00" lane=":7872192244_0_0" pos="2.73" speed="8.87" angle="32.15" x="2971.37" y="2328.59"/>
        <vehicle id="1" eclass="HBEFA3/PC_G_EU4" CO2="6767.07" CO="142.44" HC="0.81" NOx="2.96" PMx="0.14" fuel="2158.38" electricity="0.00" noise="69.69" route="!1" type="DEFAULT_VEHTYPE" waiting="0.00" lane="-771326027#3_0" pos="19.78" speed="7.37" angle="130.66" x="2672.34" y="2974.16"/>
        <vehicle id="2" eclass="HBEFA3/PC_G_EU4" CO2="4091.31" CO="135.69" HC="0.71" NOx="1.80" PMx="0.09" fuel="1304.97" electricity="0.00" noise="65.84" route="!2" type="DEFAULT_VEHTYPE" waiting="0.00" lane=":7201339016_0_0" pos="5.43" speed="3.67" angle="311.98" x="3865.26" y="2879.28"/>
        <vehicle id="3" eclass="HBEFA3/PC_G_EU4" CO2="3876.66" CO="150.31" HC="0.78" NOx="1.73" PMx="0.09" fuel="1236.51" electricity="0.00" noise="67.49" route="!3" type="DEFAULT_VEHTYPE" waiting="0.00" lane="701529973#17_0" pos="7.51" speed="2.41" angle="48.19" x="3407.64" y="3317.82"/>
        <vehicle id="4" eclass="HBEFA3/PC_G_EU4" CO2="2624.72" CO="164.78" HC="0.81" NOx="1.20" PMx="0.07" fuel="837.22" electricity="0.00" noise="55.94" route="!4" type="DEFAULT_VEHTYPE" waiting="0.00" lane="24926458#6_0" pos="5.10" speed="0.00" angle="311.92" x="4214.55" y="2849.91"/>
    </timestep>
    <timestep time="5.00">
        <vehicle id="0" eclass="HBEFA3/PC_G_EU4" CO2="7788.29" CO="128.34" HC="0.77" NOx="3.35" PMx="0.16" fuel="2484.08" electricity="0.00" noise="69.51" route="!0" type="DEFAULT_VEHTYPE" waiting="0.00" lane="4987249#4_0" pos="8.60" speed="10.87" angle="35.44" x="2977.46" y="2337.55"/>
        <vehicle id="1" eclass="HBEFA3/PC_G_EU4" CO2="8415.11" CO="150.57" HC="0.89" NOx="3.67" PMx="0.18" fuel="2684.01" electricity="0.00" noise="70.96" route="!1" type="DEFAULT_VEHTYPE" waiting="0.00" lane="-771326027#3_0" pos="29.62" speed="9.83" angle="130.66" x="2679.80" y="2967.75"/>
        <vehicle id="2" eclass="HBEFA3/PC_G_EU4" CO2="4575.16" CO="121.73" HC="0.66" NOx="1.98" PMx="0.09" fuel="1459.28" electricity="0.00" noise="65.74" route="!2" type="DEFAULT_VEHTYPE" waiting="0.00" lane="645419926#7_0" pos="3.70" speed="5.40" angle="312.00" x="3861.25" y="2882.89"/>
        <vehicle id="3" eclass="HBEFA3/PC_G_EU4" CO2="3709.70" CO="124.96" HC="0.66" NOx="1.61" PMx="0.07" fuel="1183.25" electricity="0.00" noise="63.91" route="!3" type="DEFAULT_VEHTYPE" waiting="0.00" lane="701529973#17_0" pos="11.39" speed="3.87" angle="48.19" x="3410.53" y="3320.40"/>
        <vehicle id="4" eclass="HBEFA3/PC_G_EU4" CO2="3421.84" CO="147.81" HC="0.75" NOx="1.53" PMx="0.08" fuel="1091.45" electricity="0.00" noise="65.42" route="!4" type="DEFAULT_VEHTYPE" waiting="0.00" lane="24926458#6_0" pos="7.08" speed="1.98" angle="311.92" x="4213.08" y="2851.23"/>
        <vehicle id="5" eclass="HBEFA3/PC_G_EU4" CO2="2624.72" CO="164.78" HC="0.81" NOx="1.20" PMx="0.07" fuel="837.22" electricity="0.00" noise="55.94" route="!5" type="DEFAULT_VEHTYPE" waiting="0.00" lane="-700632938#2_0" pos="5.10" speed="0.00" angle="227.73" x="3178.73" y="2988.22"/>
    </timestep>
    <timestep time="6.00">
        <vehicle id="0" eclass="HBEFA3/PC_G_EU4" CO2="9286.92" CO="143.11" HC="0.88" NOx="4.01" PMx="0.19" fuel="2962.07" electricity="0.00" noise="70.91" route="!0" type="DEFAULT_VEHTYPE" waiting="0.00" lane="4987249#5_0" pos="3.03" speed="12.95" angle="40.50" x="2985.19" y="2347.68"/>
        <vehicle id="1" eclass="HBEFA3/PC_G_EU4" CO2="6241.31" CO="93.44" HC="0.57" NOx="2.61" PMx="0.12" fuel="1990.68" electricity="0.00" noise="67.33" route="!1" type="DEFAULT_VEHTYPE" waiting="0.00" lane="-771326027#3_0" pos="40.84" speed="11.23" angle="130.66" x="2688.32" y="2960.44"/>
        <vehicle id="2" eclass="HBEFA3/PC_G_EU4" CO2="6570.42" CO="135.32" HC="0.77" NOx="2.86" PMx="0.14" fuel="2095.66" electricity="0.00" noise="69.03" route="!2" type="DEFAULT_VEHTYPE" waiting="0.00" lane="645419926#7_0" pos="11.35" speed="7.64" angle="312.01" x="3855.57" y="2888.00"/>
        <vehicle id="3" eclass="HBEFA3/PC_G_EU4" CO2="6110.54" CO="141.76" HC="0.79" NOx="2.68" PMx="0.13" fuel="1948.99" electricity="0.00" noise="69.20" route="!3" type="DEFAULT_VEHTYPE" waiting="0.00" lane=":7201339529_0_0" pos="5.48" speed="6.30" angle="79.94" x="3416.34" y="3322.05"/>
        <vehicle id="4" eclass="HBEFA3/PC_G_EU4" CO2="4628.31" CO="139.33" HC="0.74" NOx="2.04" PMx="0.10" fuel="1476.24" electricity="0.00" noise="67.31" route="!4" type="DEFAULT_VEHTYPE" waiting="0.00" lane="24926458#6_0" pos="11.27" speed="4.19" angle="311.92" x="4209.96" y="2854.03"/>
        <vehicle id="5" eclass="HBEFA3/PC_G_EU4" CO2="3458.50" CO="147.94" HC="0.75" NOx="1.54" PMx="0.08" fuel="1103.14" electricity="0.00" noise="65.60" route="!5" type="DEFAULT_VEHTYPE" waiting="0.00" lane="-700632938#2_0" pos="7.12" speed="2.02" angle="227.73" x="3177.23" y="2986.86"/>
    </timestep>
    <timestep time="7.00">
        <vehicle id="0" eclass="HBEFA3/PC_G_EU4" CO2="8751.93" CO="121.84" HC="0.77" NOx="3.71" PMx="0.18" fuel="2791.43" electricity="0.00" noise="70.16" route="!0" type="DEFAULT_VEHTYPE" waiting="0.00" lane=":7872192246_0_0" pos="4.03" speed="14.62" angle="43.04" x="2994.90" y="2358.51"/>
        <vehicle id="1" eclass="HBEFA3/PC_G_EU4" CO2="7402.78" CO="105.52" HC="0.66" NOx="3.12" PMx="0.15" fuel="2361.12" electricity="0.00" noise="68.74" route="!1" type="DEFAULT_VEHTYPE" waiting="0.00" lane="-771326027#3_0" pos="53.62" speed="12.78" angle="130.66" x="2698.01" y="2952.11"/>
        <vehicle id="2" eclass="HBEFA3/PC_G_EU4" CO2="8646.07" CO="152.67" HC="0.90" NOx="3.78" PMx="0.18" fuel="2757.67" electricity="0.00" noise="71.16" route="!2" type="DEFAULT_VEHTYPE" waiting="0.00" lane="645419926#7_0" pos="21.46" speed="10.12" angle="312.01" x="3848.06" y="2894.77"/>
        <vehicle id="3" eclass="HBEFA3/PC_G_EU4" CO2="5933.76" CO="116.95" HC="0.67" NOx="2.55" PMx="0.12" fuel="1892.60" electricity="0.00" noise="67.43" route="!3" type="DEFAULT_VEHTYPE" waiting="0.00" lane="28496650#0_0" pos="6.13" speed="8.12" angle="103.72" x="3424.26" y="3320.27"/>
        <vehicle id="4" eclass="HBEFA3/PC_G_EU4" CO2="2628.38" CO="93.05" HC="0.48" NOx="1.08" PMx="0.04" fuel="838.37" electricity="0.00" noise="59.57" route="!4" type="DEFAULT_VEHTYPE" waiting="0.00" lane="24926458#6_0" pos="15.82" speed="4.55" angle="311.92" x="4206.57" y="2857.07"/>
        <vehicle id="5" eclass="HBEFA3/PC_G_EU4" CO2="4082.31" CO="132.88" HC="0.70" NOx="1.79" PMx="0.08" fuel="1302.10" electricity="0.00" noise="65.54" route="!5" type="DEFAULT_VEHTYPE" waiting="0.00" lane="-700632938#2_0" pos="10.97" speed="3.85" angle="227.73" x="3174.38" y="2984.27"/>
        <vehicle id="7" eclass="HBEFA3/PC_G_EU4" CO2="2624.72" CO="164.78" HC="0.81" NOx="1.20" PMx="0.07" fuel="837.22" electricity="0.00" noise="55.94" route="!7" type="DEFAULT_VEHTYPE" waiting="0.00" lane="4987249#37_0" pos="5.10" speed="0.00" angle="53.46" x="3470.69" y="2722.81"/>
    </timestep>
    <timestep time="8.00">
        <vehicle id="0" eclass="HBEFA3/PC_G_EU4" CO2="8942.17" CO="118.44" HC="0.76" NOx="3.76" PMx="0.18" fuel="2852.10" electricity="0.00" noise="70.42" route="!0" type="DEFAULT_VEHTYPE" waiting="0.00" lane=":7206789987_0_0" pos="0.20" speed="16.13" angle="46.53" x="3006.41" y="2369.65"/>
        <vehicle id="1" eclass="HBEFA3/PC_G_EU4" CO2="2859.50" CO="10.75" HC="0.11" NOx="0.97" PMx="0.03" fuel="912.06" electricity="0.00" noise="64.36" route="!1" type="DEFAULT_VEHTYPE" waiting="0.00" lane=":6517615540_6_0" pos="0.48" speed="12.95" angle="130.71" x="2707.84" y="2943.67"/>
        <vehicle id="2" eclass="HBEFA3/PC_G_EU4" CO2="6156.18" CO="89.84" HC="0.56" NOx="2.57" PMx="0.11" fuel="1963.53" electricity="0.00" noise="67.22" route="!2" type="DEFAULT_VEHTYPE" waiting="0.00" lane="645419926#7_0" pos="32.92" speed="11.45" angle="312.01" x="3839.55" y="2902.44"/>
        <vehicle id="3" eclass="HBEFA3/PC_G_EU4" CO2="0.00" CO="0.00" HC="0.00" NOx="0.00" PMx="0.00" fuel="0.00" electricity="0.00" noise="56.00" route="!3" type="DEFAULT_VEHTYPE" waiting="0.00" lane="28496650#0_0" pos="13.09" speed="6.95" angle="104.42" x="3430.99" y="3318.55"/>
        <vehicle id="4" eclass="HBEFA3/PC_G_EU4" CO2="0.00" CO="0.00" HC="0.00" NOx="0.00" PMx="0.00" fuel="0.00" electricity="0.00" noise="50.74" route="!4" type="DEFAULT_VEHTYPE" waiting="0.00" lane=":6579766762_9_0" pos="0.26" speed="2.97" angle="299.30" x="4203.96" y="2858.03"/>
        <vehicle id="5" eclass="HBEFA3/PC_G_EU4" CO2="5898.93" CO="138.75" HC="0.77" NOx="2.58" PMx="0.12" fuel="1881.49" electricity="0.00" noise="68.76" route="!5" type="DEFAULT_VEHTYPE" waiting="0.00" lane="-700632938#2_0" pos="17.17" speed="6.19" angle="227.73" x="3169.80" y="2980.10"/>
        <vehicle id="7" eclass="HBEFA3/PC_G_EU4" CO2="3252.28" CO="147.41" HC="0.75" NOx="1.45" PMx="0.07" fuel="1037.37" electricity="0.00" noise="64.50" route="!7" type="DEFAULT_VEHTYPE" waiting="0.00" lane="4987249#37_1" pos="6.89" speed="1.79" angle="53.46" x="3470.22" y="2726.44"/>
    </timestep>
    <timestep time="9.00">
        <vehicle id="0" eclass="HBEFA3/PC_G_EU4" CO2="8862.60" CO="111.92" HC="0.72" NOx="3.69" PMx="0.18" fuel="2826.73" electricity="0.00" noise="70.55" route="!0" type="DEFAULT_VEHTYPE" waiting="0.00" lane="4987249#8_0" pos="14.36" speed="17.47" angle="52.94" x="3019.83" y="2380.57"/>
        <vehicle id="1" eclass="HBEFA3/PC_G_EU4" CO2="1717.48" CO="0.00" HC="0.00" NOx="0.44" PMx="0.00" fuel="547.82" electricity="0.00" noise="63.41" route="!1" type="DEFAULT_VEHTYPE" waiting="0.00" lane=":6517615540_6_0" pos="13.27" speed="12.79" angle="134.56" x="2717.18" y="2934.93"/>
        <vehicle id="2" eclass="HBEFA3/PC_G_EU4" CO2="7031.07" CO="97.17" HC="0.61" NOx="2.94" PMx="0.14" fuel="2242.57" electricity="0.00" noise="68.32" route="!2" type="DEFAULT_VEHTYPE" waiting="0.00" lane="645419926#7_0" pos="45.80" speed="12.88" angle="312.01" x="3829.98" y="2911.05"/>
        <vehicle id="3" eclass="HBEFA3/PC_G_EU4" CO2="8106.24" CO="148.36" HC="0.87" NOx="3.54" PMx="0.17" fuel="2585.50" electricity="0.00" noise="70.71" route="!3" type="DEFAULT_VEHTYPE" waiting="0.00" lane=":7203491747_1_0" pos="6.01" speed="9.40" angle="105.81" x="3440.06" y="3316.05"/>
        <vehicle id="4" eclass="HBEFA3/PC_G_EU4" CO2="2444.08" CO="109.47" HC="0.55" NOx="1.03" PMx="0.05" fuel="779.59" electricity="0.00" noise="58.09" route="!4" type="DEFAULT_VEHTYPE" waiting="0.00" lane="-24926458#6_0" pos="0.19" speed="3.15" angle="221.22" x="4203.63" y="2855.42"/>
        <vehicle id="5" eclass="HBEFA3/PC_G_EU4" CO2="7807.42" CO="149.21" HC="0.87" NOx="3.42" PMx="0.16" fuel="2490.19" electricity="0.00" noise="70.68" route="!5" type="DEFAULT_VEHTYPE" waiting="0.00" lane="-700632938#2_0" pos="25.88" speed="8.71" angle="227.73" x="3163.35" y="2974.25"/>
        <vehicle id="7" eclass="HBEFA3/PC_G_EU4" CO2="4821.96" CO="143.45" HC="0.77" NOx="2.13" PMx="0.10" fuel="1538.00" electricity="0.00" noise="68.11" route="!7" type="DEFAULT_VEHTYPE" waiting="0.00" lane="4987249#37_1" pos="11.07" speed="4.18" angle="53.46" x="3473.57" y="2728.93"/>
        <vehicle id="9" eclass="HBEFA3/PC_G_EU4" CO2="2624.72" CO="164.78" HC="0.81" NOx="1.20" PMx="0.07" fuel="837.22" electricity="0.00" noise="55.94" route="!9" type="DEFAULT_VEHTYPE" waiting="0.00" lane="700148837#10_0" pos="5.10" speed="0.00" angle="56.76" x="3713.95" y="2161.93"/>
    </timestep>
    <timestep time="10.00">
        <vehicle id="0" eclass="HBEFA3/PC_G_EU4" CO2="12603.31" CO="184.62" HC="1.15" NOx="5.41" PMx="0.28" fuel="4019.82" electricity="0.00" noise="73.46" route="!0" type="DEFAULT_VEHTYPE" waiting="0.00" lane="4987249#9_0" pos="8.48" speed="19.36" angle="51.87" x="3035.21" y="2392.41"/>
        <vehicle id="1" eclass="HBEFA3/PC_G_EU4" CO2="0.00" CO="0.00" HC="0.00" NOx="0.00" PMx="0.00" fuel="0.00" electricity="0.00" noise="61.01" route="!1" type="DEFAULT_VEHTYPE" waiting="0.00" lane=":6517615532_13_0" pos="4.73" speed="11.80" angle="135.94" x="2725.42" y="2926.48"/>
        <vehicle id="2" eclass="HBEFA3/PC_G_EU4" CO2="8131.62" CO="110.22" HC="0.70" NOx="3.42" PMx="0.16" fuel="2593.58" electricity="0.00" noise="69.55" route="!2" type="DEFAULT_VEHTYPE" waiting="0.00" lane="645419926#8_0" pos="4.64" speed="14.41" angle="315.73" x="3819.72" y="2921.17"/>
        <vehicle id="3" eclass="HBEFA3/PC_G_EU4" CO2="9005.53" CO="146.92" HC="0.89" NOx="3.91" PMx="0.19" fuel="2872.32" electricity="0.00" noise="70.94" route="!3" type="DEFAULT_VEHTYPE" waiting="0.00" lane=":7203491756_1_0" pos="3.07" speed="11.65" angle="105.93" x="3451.27" y="3312.88"/>
        <vehicle id="4" eclass="HBEFA3/PC_G_EU4" CO2="4943.35" CO="131.85" HC="0.72" NOx="2.16" PMx="0.10" fuel="1576.72" electricity="0.00" noise="67.07" route="!4" type="DEFAULT_VEHTYPE" waiting="0.00" lane="-24926458#6_0" pos="5.39" speed="5.20" angle="131.92" x="4207.50" y="2851.94"/>
        <vehicle id="5" eclass="HBEFA3/PC_G_EU4" CO2="6691.21" CO="109.90" HC="0.66" NOx="2.85" PMx="0.13" fuel="2134.18" electricity="0.00" noise="68.03" route="!5" type="DEFAULT_VEHTYPE" waiting="0.00" lane="-700632938#2_0" pos="36.27" speed="10.40" angle="227.73" x="3155.66" y="2967.25"/>
        <vehicle id="7" eclass="HBEFA3/PC_G_EU4" CO2="4077.45" CO="109.85" HC="0.60" NOx="1.74" PMx="0.08" fuel="1300.54" electricity="0.00" noise="64.17" route="!7" type="DEFAULT_VEHTYPE" waiting="0.00" lane=":7872488971_0_1" pos="2.80" speed="5.52" angle="53.46" x="3478.01" y="2732.22"/>
        <vehicle id="9" eclass="HBEFA3/PC_G_EU4" CO2="3329.71" CO="147.54" HC="0.75" NOx="1.49" PMx="0.07" fuel="1062.07" electricity="0.00" noise="64.93" route="!9" type="DEFAULT_VEHTYPE" waiting="0.00" lane="700148837#10_0" pos="6.98" speed="1.88" angle="56.76" x="3715.53" y="2162.97"/>
    </timestep>
    <timestep time="11.00">
        <vehicle id="0" eclass="HBEFA3/PC_G_EU4" CO2="12798.18" CO="187.29" HC="1.17" NOx="5.47" PMx="0.29" fuel="4081.97" electricity="0.00" noise="73.70" route="!0" type="DEFAULT_VEHTYPE" waiting="0.00" lane=":377615254_3_0" pos="4.48" speed="21.08" angle="51.92" x="3051.78" y="2405.43"/>
        <vehicle id="1" eclass="HBEFA3/PC_G_EU4" CO2="3361.98" CO="26.80" HC="0.20" NOx="1.23" PMx="0.04" fuel="1072.33" electricity="0.00" noise="64.34" route="!1" type="DEFAULT_VEHTYPE" waiting="0.00" lane="-771326027#1_0" pos="2.48" speed="12.16" angle="136.06" x="2733.87" y="2917.73"/>
        <vehicle id="2" eclass="HBEFA3/PC_G_EU4" CO2="8496.30" CO="110.47" HC="0.71" NOx="3.56" PMx="0.17" fuel="2709.90" electricity="0.00" noise="70.01" route="!2" type="DEFAULT_VEHTYPE" waiting="0.00" lane="645419926#8_0" pos="20.49" speed="15.85" angle="315.81" x="3808.68" y="2932.54"/>
        <vehicle id="3" eclass="HBEFA3/PC_G_EU4" CO2="7435.41" CO="103.59" HC="0.65" NOx="3.13" PMx="0.15" fuel="2371.53" electricity="0.00" noise="68.78" route="!3" type="DEFAULT_VEHTYPE" waiting="0.00" lane="28496650#3_0" pos="10.47" speed="13.16" angle="108.31" x="3463.83" y="3308.95"/>
        <vehicle id="4" eclass="HBEFA3/PC_G_EU4" CO2="6620.10" CO="137.80" HC="0.79" NOx="2.89" PMx="0.14" fuel="2111.50" electricity="0.00" noise="69.24" route="!4" type="DEFAULT_VEHTYPE" waiting="0.00" lane="-24926458#6_0" pos="12.90" speed="7.51" angle="131.92" x="4213.09" y="2846.92"/>
        <vehicle id="5" eclass="HBEFA3/PC_G_EU4" CO2="4792.73" CO="63.11" HC="0.40" NOx="1.93" PMx="0.08" fuel="1528.66" electricity="0.00" noise="65.52" route="!5" type="DEFAULT_VEHTYPE" waiting="0.00" lane="-700632938#2_0" pos="47.56" speed="11.29" angle="227.73" x="3147.31" y="2959.66"/>
        <vehicle id="7" eclass="HBEFA3/PC_G_EU4" CO2="6532.45" CO="133.61" HC="0.76" NOx="2.84" PMx="0.13" fuel="2083.55" electricity="0.00" noise="68.89" route="!7" type="DEFAULT_VEHTYPE" waiting="0.00" lane="4987249#38_1" pos="5.52" speed="7.73" angle="53.50" x="3484.22" y="2736.82"/>
        <vehicle id="9" eclass="HBEFA3/PC_G_EU4" CO2="4177.16" CO="135.30" HC="0.71" NOx="1.83" PMx="0.09" fuel="1332.35" electricity="0.00" noise="66.00" route="!9" type="DEFAULT_VEHTYPE" waiting="0.00" lane="700148837#10_0" pos="10.80" speed="3.82" angle="56.76" x="3718.72" y="2165.06"/>
    </timestep>
    <timestep time="12.00">
        <vehicle id="0" eclass="HBEFA3/PC_G_EU4" CO2="19868.95" CO="335.49" HC="2.02" NOx="8.74" PMx="0.47" fuel="6337.18" electricity="0.00" noise="78.19" route="!0" type="DEFAULT_VEHTYPE" waiting="0.00" lane="4987249#12_0" pos="7.32" speed="23.66" angle="51.98" x="3070.42" y="2420.01"/>
        <vehicle id="1" eclass="HBEFA3/PC_G_EU4" CO2="4221.39" CO="40.17" HC="0.28" NOx="1.62" PMx="0.06" fuel="1346.43" electricity="0.00" noise="65.42" route="!1" type="DEFAULT_VEHTYPE" waiting="0.00" lane="-771326027#1_0" pos="15.23" speed="12.75" angle="136.17" x="2742.70" y="2908.53"/>
        <vehicle id="12" eclass="HBEFA3/PC_G_EU4" CO2="2624.72" CO="164.78" HC="0.81" NOx="1.20" PMx="0.07" fuel="837.22" electricity="0.00" noise="55.94" route="!12" type="DEFAULT_VEHTYPE" waiting="0.00" lane="771321486#1_0" pos="5.10" speed="0.00" angle="138.23" x="3097.09" y="3345.20"/>
        <vehicle id="2" eclass="HBEFA3/PC_G_EU4" CO2="10406.62" CO="143.55" HC="0.91" NOx="4.42" PMx="0.22" fuel="3319.19" electricity="0.00" noise="71.72" route="!2" type="DEFAULT_VEHTYPE" waiting="0.00" lane="645419926#8_0" pos="38.02" speed="17.52" angle="320.89" x="3796.80" y="2945.39"/>
        <vehicle id="3" eclass="HBEFA3/PC_G_EU4" CO2="5499.36" CO="58.28" HC="0.40" NOx="2.19" PMx="0.09" fuel="1754.03" electricity="0.00" noise="67.03" route="!3" type="DEFAULT_VEHTYPE" waiting="0.00" lane="28496650#3_0" pos="24.49" speed="14.02" angle="110.87" x="3476.96" y="3304.07"/>
        <vehicle id="4" eclass="HBEFA3/PC_G_EU4" CO2="8539.32" CO="151.72" HC="0.90" NOx="3.73" PMx="0.18" fuel="2723.63" electricity="0.00" noise="71.07" route="!4" type="DEFAULT_VEHTYPE" waiting="0.00" lane=":7201338991_7_0" pos="5.80" speed="9.98" angle="131.93" x="4220.52" y="2840.25"/>
        <vehicle id="5" eclass="HBEFA3/PC_G_EU4" CO2="0.00" CO="0.00" HC="0.00" NOx="0.00" PMx="0.00" fuel="0.00" electricity="0.00" noise="60.69" route="!5" type="DEFAULT_VEHTYPE" waiting="0.00" lane="-700632938#2_0" pos="58.22" speed="10.66" angle="227.73" x="3139.42" y="2952.49"/>
        <vehicle id="7" eclass="HBEFA3/PC_G_EU4" CO2="5519.90" CO="97.53" HC="0.57" NOx="2.32" PMx="0.10" fuel="1760.59" electricity="0.00" noise="66.38" route="!7" type="DEFAULT_VEHTYPE" waiting="0.00" lane="4987249#38_1" pos="14.68" speed="9.16" angle="53.50" x="3491.59" y="2742.27"/>
        <vehicle id="9" eclass="HBEFA3/PC_G_EU4" CO2="6073.94" CO="141.66" HC="0.79" NOx="2.66" PMx="0.13" fuel="1937.31" electricity="0.00" noise="69.17" route="!9" type="DEFAULT_VEHTYPE" waiting="0.00" lane="700148837#10_0" pos="17.05" speed="6.25" angle="56.76" x="3723.95" y="2168.48"/>
    </timestep>
    <timestep time="13.00">
        <vehicle id="0" eclass="HBEFA3/PC_G_EU4" CO2="16817.70" CO="278.02" HC="1.68" NOx="7.26" PMx="0.40" fuel="5363.99" electricity="0.00" noise="76.44" route="!0" type="DEFAULT_VEHTYPE" waiting="0.00" lane="4987249#12_0" pos="32.85" speed="25.52" angle="51.98" x="3090.52" y="2435.73"/>
        <vehicle id="1" eclass="HBEFA3/PC_G_EU4" CO2="2732.75" CO="8.54" HC="0.10" NOx="0.91" PMx="0.02" fuel="871.63" electricity="0.00" noise="64.22" route="!1" type="DEFAULT_VEHTYPE" waiting="0.00" lane="-771326027#1_0" pos="28.13" speed="12.90" angle="136.17" x="2751.63" y="2899.23"/>
        <vehicle id="12" eclass="HBEFA3/PC_G_EU4" CO2="3250.36" CO="147.41" HC="0.75" NOx="1.45" PMx="0.07" fuel="1036.76" electricity="0.00" noise="64.49" route="!12" type="DEFAULT_VEHTYPE" waiting="0.00" lane="771321486#1_0" pos="6.89" speed="1.79" angle="138.23" x="3098.28" y="3343.86"/>
        <vehicle id="13" eclass="HBEFA3/PC_G_EU4" CO2="2624.72" CO="164.78" HC="0.81" NOx="1.20" PMx="0.07" fuel="837.22" electricity="0.00" noise="55.94" route="!13" type="DEFAULT_VEHTYPE" waiting="0.00" lane="-28518556#1_0" pos="5.10" speed="0.00" angle="221.80" x="4248.88" y="2800.41"/>
        <vehicle id="2" eclass="HBEFA3/PC_G_EU4" CO2="4144.67" CO="13.79" HC="0.16" NOx="1.46" PMx="0.06" fuel="1321.96" electricity="0.00" noise="67.79" route="!2" type="DEFAULT_VEHTYPE" waiting="0.00" lane="645419926#8_0" pos="55.83" speed="17.81" angle="339.64" x="3788.76" y="2961.19"/>
        <vehicle id="3" eclass="HBEFA3/PC_G_EU4" CO2="5502.53" CO="53.86" HC="0.38" NOx="2.17" PMx="0.09" fuel="1755.04" electricity="0.00" noise="67.31" route="!3" type="DEFAULT_VEHTYPE" waiting="0.00" lane="28496650#3_0" pos="39.30" speed="14.82" angle="110.87" x="3490.81" y="3298.79"/>
        <vehicle id="4" eclass="HBEFA3/PC_G_EU4" CO2="7584.27" CO="116.90" HC="0.71" NOx="3.23" PMx="0.15" fuel="2419.01" electricity="0.00" noise="69.03" route="!4" type="DEFAULT_VEHTYPE" waiting="0.00" lane="-24926458#5_0" pos="3.15" speed="11.75" angle="131.91" x="4229.26" y="2832.40"/>
        <vehicle id="5" eclass="HBEFA3/PC_G_EU4" CO2="1874.09" CO="9.19" HC="0.08" NOx="0.57" PMx="0.00" fuel="597.77" electricity="0.00" noise="61.93" route="!5" type="DEFAULT_VEHTYPE" waiting="0.00" lane="-700632938#2_0" pos="68.79" speed="10.57" angle="227.73" x="3131.60" y="2945.38"/>
        <vehicle id="7" eclass="HBEFA3/PC_G_EU4" CO2="0.00" CO="0.00" HC="0.00" NOx="0.00" PMx="0.00" fuel="0.00" electricity="0.00" noise="55.02" route="!7" type="DEFAULT_VEHTYPE" waiting="0.00" lane=":7872488964_2_0" pos="1.64" speed="7.33" angle="50.56" x="3497.31" y="2746.82"/>
        <vehicle id="9" eclass="HBEFA3/PC_G_EU4" CO2="5832.95" CO="115.77" HC="0.67" NOx="2.50" PMx="0.11" fuel="1860.44" electricity="0.00" noise="67.26" route="!9" type="DEFAULT_VEHTYPE" waiting="0.00" lane=":7872679918_0_0" pos="0.42" speed="8.04" angle="56.77" x="3730.67" y="2172.89"/>
    </timestep>
    <timestep time="14.00">
        <vehicle id="0" eclass="HBEFA3/PC_G_EU4" CO2="18955.16" CO="330.74" HC="1.98" NOx="8.23" PMx="0.46" fuel="6045.73" electricity="0.00" noise="77.70" route="!0" type="DEFAULT_VEHTYPE" waiting="0.00" lane="4987249#13_0" pos="11.88" speed="27.47" angle="52.00" x="3112.17" y="2452.64"/>
        <vehicle id="1" eclass="HBEFA3/PC_G_EU4" CO2="0.00" CO="0.00" HC="0.00" NOx="0.00" PMx="0.00" fuel="0.00" electricity="0.00" noise="61.75" route="!1" type="DEFAULT_VEHTYPE" waiting="0.00" lane="-771326027#1_0" pos="40.29" speed="12.16" angle="136.17" x="2760.05" y="2890.46"/>
        <vehicle id="12" eclass="HBEFA3/PC_G_EU4" CO2="4358.45" CO="138.16" HC="0.73" NOx="1.92" PMx="0.09" fuel="1390.17" electricity="0.00" noise="66.69" route="!12" type="DEFAULT_VEHTYPE" waiting="0.00" lane="771321486#1_0" pos="10.77" speed="3.88" angle="138.23" x="3100.86" y="3340.97"/>
        <vehicle id="13" eclass="HBEFA3/PC_G_EU4" CO2="3969.80" CO="151.01" HC="0.78" NOx="1.77" PMx="0.09" fuel="1266.22" electricity="0.00" noise="67.87" route="!13" type="DEFAULT_VEHTYPE" waiting="0.00" lane="-28518556#1_0" pos="7.59" speed="2.49" angle="221.80" x="4247.22" y="2798.55"/>
        <vehicle id="2" eclass="HBEFA3/PC_G_EU4" CO2="0.00" CO="0.00" HC="0.00" NOx="0.00" PMx="0.00" fuel="0.00" electricity="0.00" noise="60.81" route="!2" type="DEFAULT_VEHTYPE" waiting="0.00" lane="645419926#8_0" pos="69.14" speed="13.31" angle="353.41" x="3786.22" y="2974.23"/>
        <vehicle id="3" eclass="HBEFA3/PC_G_EU4" CO2="0.00" CO="0.00" HC="0.00" NOx="0.00" PMx="0.00" fuel="0.00" electricity="0.00" noise="63.25" route="!3" type="DEFAULT_VEHTYPE" waiting="0.00" lane="28496650#3_0" pos="53.35" speed="14.05" angle="110.87" x="3503.94" y="3293.78"/>
        <vehicle id="4" eclass="HBEFA3/PC_G_EU4" CO2="6760.18" CO="90.29" HC="0.57" NOx="2.81" PMx="0.13" fuel="2156.17" electricity="0.00" noise="68.05" route="!4" type="DEFAULT_VEHTYPE" waiting="0.00" lane="-24926458#5_0" pos="16.21" speed="13.07" angle="131.90" x="4238.99" y="2823.67"/>
        <vehicle id="5" eclass="HBEFA3/PC_G_EU4" CO2="4687.60" CO="59.92" HC="0.38" NOx="1.87" PMx="0.08" fuel="1495.13" electricity="0.00" noise="65.43" route="!5" type="DEFAULT_VEHTYPE" waiting="0.00" lane="-700632938#2_0" pos="80.21" speed="11.42" angle="227.73" x="3123.15" y="2937.70"/>
        <vehicle id="7" eclass="HBEFA3/PC_G_EU4" CO2="1925.52" CO="44.33" HC="0.24" NOx="0.68" PMx="0.02" fuel="614.18" electricity="0.00" noise="59.49" route="!7" type="DEFAULT_VEHTYPE" waiting="0.00" lane="765710545_0" pos="1.28" speed="7.24" angle="355.82" x="3497.82" y="2753.79"/>
        <vehicle id="9" eclass="HBEFA3/PC_G_EU4" CO2="7359.27" CO="126.90" HC="0.75" NOx="3.17" PMx="0.15" fuel="2347.25" electricity="0.00" noise="69.15" route="!9" type="DEFAULT_VEHTYPE" waiting="0.00" lane="700148837#11_0" pos="5.46" speed="10.04" angle="56.73" x="3739.07" y="2178.39"/>
    </timestep>
    <timestep time="15.00">
        <vehicle id="0" eclass="HBEFA3/PC_G_EU4" CO2="20682.73" CO="378.30" HC="2.24" NOx="9.00" PMx="0.51" fuel="6596.74" electricity="0.00" noise="78.69" route="!0" type="DEFAULT_VEHTYPE" waiting="0.00" lane=":377615466_1_0" pos="4.16" speed="29.44" angle="51.97" x="3135.35" y="2470.79"/>
        <vehicle id="1" eclass="HBEFA3/PC_G_EU4" CO2="2422.53" CO="6.97" HC="0.08" NOx="0.79" PMx="0.02" fuel="772.69" electricity="0.00" noise="63.56" route="!1" type="DEFAULT_VEHTYPE" waiting="0.00" lane="-771326027#1_0" pos="52.51" speed="12.23" angle="136.17" x="2768.51" y="2881.64"/>
        <vehicle id="12" eclass="HBEFA3/PC_G_EU4" CO2="4281.76" CO="115.69" HC="0.63" NOx="1.84" PMx="0.08" fuel="1365.70" electricity="0.00" noise="64.84" route="!12" type="DEFAULT_VEHTYPE" waiting="0.00" lane="771321486#1_0" pos="16.16" speed="5.40" angle="138.23" x="3104.46" y="3336.94"/>